LAMMPS data file via write_data, version 12 Dec 2018, timestep = 5000

10530 atoms
2 atom types
7020 bonds
1 bond types
3510 angles
1 angle types

-1.1059614192453804e-01 9.4105961419245396e+00 xlo xhi
-6.6357685154708435e-01 5.6463576851547160e+01 ylo yhi
-2.3962497416984831e+00 2.0389624974169979e+02 zlo zhi

Masses

1 1.00794
2 15.9994

Atoms # full

6 2 1 0.409999999999999 1.70443765453804 4.44973917153136 1.20456858439928 0 0 0
186 62 1 0.409999999999999 1.51484214548063 7.42147961091134 -0.306646050148982 0 0 0
10386 3462 1 0.409999999999999 7.73841157614791 3.97108360542968 205.966832972347 0 0 0
18 6 1 0.409999999999999 6.73538180692349 6.89181004301312 -0.508656868452403 0 0 0
180 60 1 0.409999999999999 5.30276950735598 2.50094754194042 3.77407302536587 0 0 0
27 9 1 0.409999999999999 3.68049937572799 6.27154582733509 2.76878195828825 0 0 0
159 53 1 0.409999999999999 1.55577459164104 56.4679101350433 1.49132612173852 0 0 0
163 55 2 -0.819999999999999 -0.283203376602978 2.68636723953072 3.07327635553135 0 0 0
12 4 1 0.409999999999999 -0.315030526256628 5.80366672265594 -1.71801847440556 0 0 0
4 2 2 -0.819999999999999 2.06761675692891 3.47490867877433 1.05774552326922 0 0 0
13 5 2 -0.819999999999999 4.28656055237285 5.25873142612266 -0.838248864930084 0 0 0
164 55 1 0.409999999999999 0.334463340069999 2.6433084252032 2.31291378561395 0 0 0
16 6 2 -0.819999999999999 7.12437024029503 7.25664653698265 0.34282139342994 0 0 0
178 60 2 -0.819999999999999 5.16153633600519 2.68093151669854 2.76487821651089 0 0 0
194 65 1 0.409999999999999 2.65765536842495 10.2527630191586 2.31468761662278 0 0 0
5 2 1 0.409999999999999 2.7731368707312 3.29222730616757 1.76301411128395 0 0 0
17 6 1 0.409999999999999 6.7742411930141 8.19435020708635 0.540263731539104 0 0 0
179 60 1 0.409999999999999 5.87661989562058 3.21308699613231 2.25066994896637 0 0 0
33 11 1 0.409999999999999 -0.599827488863967 8.91954232739361 1.27159127108553 0 0 0
195 65 1 0.409999999999999 1.99338524914138 8.7450623021057 2.85866909096484 0 0 0
11 4 1 0.409999999999999 1.11459369847706 4.80149073215304 -1.74292230561345 0 0 0
184 62 2 -0.819999999999999 2.32276886653665 8.02680519518566 -0.482792060415272 0 0 0
193 65 2 -0.819999999999999 2.73514654640268 9.43967787879715 2.90445998839781 0 0 0
25 9 2 -0.819999999999999 4.38938495319583 6.4866028249138 2.10383029637294 0 0 0
187 63 2 -0.819999999999999 5.34784852036058 9.9616227688475 0.866821707011702 0 0 0
155 52 1 0.409999999999999 -1.07142983775368 57.0415436155722 1.0572040903054 0 0 0
185 62 1 0.409999999999999 2.28415691511174 9.04524338173101 -0.599189702434856 0 0 0
26 9 1 0.409999999999999 3.91081932676616 7.18407909103978 1.45815643474647 0 0 0
10372 3458 2 -0.819999999999999 0.241948106437815 1.36381043766903 205.194059572716 0 0 0
160 54 2 -0.819999999999999 4.34931400739442 58.8867757078634 -0.438541755445401 0 0 0
335 112 1 0.409999999999999 0.523613519552017 6.02378104243162 2.90570015895554 0 0 0
332 111 1 0.409999999999999 6.15784923220307 5.13675859085748 3.19411962457316 0 0 0
161 54 1 0.409999999999999 5.24735343494894 58.6859477632454 0.0193043740327993 0 0 0
10385 3462 1 0.409999999999999 7.63594872773944 4.33925457998746 207.602249761805 0 0 0
162 54 1 0.409999999999999 4.27571200249347 59.93016552185 -0.376733527291668 0 0 0
10218 3406 1 0.409999999999999 -1.61617870688622 1.76449541226076 204.120095763257 0 0 0
165 55 1 0.409999999999999 0.114031029517834 3.15864809090437 3.86787686679425 0 0 0
10384 3462 2 -0.819999999999999 7.15910693065614 3.86881977792767 206.78106226067 0 0 0
31 11 2 -0.819999999999999 -0.658234106558007 9.93680275322907 1.33543713573178 0 0 0
10 4 2 -0.819999999999999 0.267843168833036 5.09135356669576 -1.28487306331228 0 0 0
336 112 1 0.409999999999999 -0.476513453215498 6.62599628409038 1.78638362385077 0 0 0
24 8 1 0.409999999999999 4.54360978182322 8.72329190400538 -1.68107386019738 0 0 0
334 112 2 -0.819999999999999 0.46661130975744 6.23515875768656 1.91713094712016 0 0 0
331 111 2 -0.819999999999999 6.92438358674275 5.14562783351241 3.89051331035112 0 0 0
32 11 1 0.409999999999999 -0.793527349690628 10.2801328851865 2.27737770830137 0 0 0
357 119 1 0.409999999999999 6.71687861634691 7.65242375870048 3.93156029906226 0 0 0
355 119 2 -0.819999999999999 7.01666706731681 8.57970423553754 3.62801066855102 0 0 0
10373 3458 1 0.409999999999999 1.16873320429599 1.15678771034945 204.738897655058 0 0 0
176 59 1 0.409999999999999 2.74860587075528 1.51359456743282 3.9523481686394 0 0 0
14 5 1 0.409999999999999 4.34581809476121 5.14241417561749 0.16581683348433 0 0 0
154 52 2 -0.819999999999999 -1.96230323273726 57.4595648675623 1.38936273597047 0 0 0
492 164 1 0.409999999999999 5.23750545244662 4.47098053991961 9.45576439990493 0 0 0
15 5 1 0.409999999999999 4.33900302680123 6.23814976008281 -1.09124133717419 0 0 0
10374 3458 1 0.409999999999999 0.36961289867342 1.99775525147629 205.956453092368 0 0 0
156 52 1 0.409999999999999 -1.88921853529257 58.4745109285021 1.6180314082487 0 0 0
169 57 2 -0.819999999999999 8.9422051304225 -0.493144312687473 4.42027658299046 0 0 0
188 63 1 0.409999999999999 5.86342712462987 10.6753083406252 1.38861479446354 0 0 0
157 53 2 -0.819999999999999 1.84497666370911 57.3286906082485 1.95783286057354 0 0 0
654 218 1 0.409999999999999 6.01892408633371 0.95552411399961 9.2215668797608 0 0 0
158 53 1 0.409999999999999 2.29841654770444 57.9679186307317 1.30230606265827 0 0 0
9 3 1 0.409999999999999 5.26245981362466 -0.0945973034476874 2.81569285631785 0 0 0
502 168 2 -0.819999999999999 10.0318104715027 7.86643086935051 5.07801399254571 0 0 0
326 109 1 0.409999999999999 -1.80041315142659 2.14409356281956 9.17488519958295 0 0 0
482 161 1 0.409999999999999 5.04655812983151 57.3588469640772 6.61795099642078 0 0 0
354 118 1 0.409999999999999 0.0737797413517373 10.3628676294986 4.69190699021471 0 0 0
501 167 1 0.409999999999999 8.3855917365456 4.77714605811304 9.60076576257795 0 0 0
22 8 2 -0.819999999999999 5.34617303345192 8.26415897525738 -2.1382021419716 0 0 0
652 218 2 -0.819999999999999 5.57412472854428 0.660905513934608 10.1022447773733 0 0 0
356 119 1 0.409999999999999 6.39278373999529 8.95355546243215 2.94096485290204 0 0 0
346 116 2 -0.819999999999999 2.37869834788131 9.8480412340221 7.23290153486788 0 0 0
503 168 1 0.409999999999999 10.1230555008176 7.64367090559416 6.10208874035367 0 0 0
342 114 1 0.409999999999999 1.88719408461144 5.67214024526214 4.96918793085143 0 0 0
497 166 1 0.409999999999999 2.95017525611823 6.68183668428883 8.45463947660163 0 0 0
653 218 1 0.409999999999999 5.89616275511843 -0.278359611883578 10.3127242891009 0 0 0
500 167 1 0.409999999999999 8.0710456458873 6.37509913341944 9.95589240686144 0 0 0
170 57 1 0.409999999999999 9.57950733278371 -0.0310914371009289 3.76027365208131 0 0 0
177 59 1 0.409999999999999 2.76339549005158 0.794585724538809 5.47214816670755 0 0 0
488 163 1 0.409999999999999 3.82535334840388 3.47489263598056 6.97420165526965 0 0 0
340 114 2 -0.819999999999999 2.35787920534756 5.08859425546515 4.31625579280372 0 0 0
341 114 1 0.409999999999999 3.04716318283479 4.48888388720436 4.763868389197 0 0 0
333 111 1 0.409999999999999 6.75539819516877 4.60958767566703 4.75435885300322 0 0 0
506 169 1 0.409999999999999 -5.74357062921283 8.35397795617909 4.64850172515714 0 0 0
491 164 1 0.409999999999999 5.66280103980959 5.99930800542875 9.34958164621028 0 0 0
641 214 1 0.409999999999999 2.37957355270954 59.0014066726453 9.6378232403508 0 0 0
505 169 2 -0.819999999999999 -5.31039148341687 7.7380394826358 5.31875360198407 0 0 0
174 58 1 0.409999999999999 -1.05012700399923 5.00684201137961 5.78359187665737 0 0 0
328 110 2 -0.819999999999999 0.304254632514426 1.34132016245454 7.21627094504819 0 0 0
183 61 1 0.409999999999999 -2.03657642666504 10.1123514593887 5.73008646110541 0 0 0
330 110 1 0.409999999999999 0.878533661952967 2.019477328412 6.63230841479772 0 0 0
172 58 2 -0.819999999999999 -0.180370647050099 4.66673316534498 6.25444419278844 0 0 0
175 59 2 -0.819999999999999 2.58356115678985 1.67715906631898 4.91483253803816 0 0 0
173 58 1 0.409999999999999 -0.218697089803587 5.1456877722279 7.14941059769422 0 0 0
512 171 1 0.409999999999999 8.25867893920454 9.22759061769843 9.10496856371456 0 0 0
509 170 1 0.409999999999999 5.78768626778184 9.29294612986297 8.74084263052375 0 0 0
329 110 1 0.409999999999999 0.5242500101046 1.2985040640066 8.21217080360967 0 0 0
338 113 1 0.409999999999999 7.21590078453063 0.862160927111639 5.71617072830624 0 0 0
181 61 2 -0.819999999999999 -2.80899076639936 10.1691767742561 6.37333618679167 0 0 0
182 61 1 0.409999999999999 -3.61926413297398 9.84775918373257 5.88986195997594 0 0 0
350 117 1 0.409999999999999 7.27682962127512 7.28053462444773 7.72809823618761 0 0 0
481 161 2 -0.819999999999999 4.20847823493051 57.1915698667136 7.17369609227035 0 0 0
510 170 1 0.409999999999999 4.54860634466683 9.44601100654852 9.56994575908458 0 0 0
508 170 2 -0.819999999999999 5.09536877038695 8.70564996625327 9.16535230261321 0 0 0
347 116 1 0.409999999999999 2.40638216741267 8.85210531853066 7.45450275487549 0 0 0
10526 3509 1 0.409999999999999 3.37995514368139 57.2836171889903 204.545841775061 0 0 0
511 171 2 -0.819999999999999 8.99701769817355 8.89481991577101 8.50241902121837 0 0 0
642 214 1 0.409999999999999 3.9679748800957 59.4789311639276 9.32092852189155 0 0 0
640 214 2 -0.819999999999999 2.95078994875197 59.75774428362 9.23832123136559 0 0 0
327 109 1 0.409999999999999 -1.95639468725945 2.92726714873582 7.81807461081793 0 0 0
489 163 1 0.409999999999999 5.33696845640194 4.23168982216842 7.31611373609837 0 0 0
498 166 1 0.409999999999999 1.75532517410557 5.63767761544294 7.89706923876015 0 0 0
507 169 1 0.409999999999999 -5.92099678014749 6.97235020329559 5.56381711329444 0 0 0
339 113 1 0.409999999999999 7.49249405292847 1.97187714074545 4.58714560036041 0 0 0
348 116 1 0.409999999999999 1.50256115322979 10.1296778215588 6.83661809568469 0 0 0
504 168 1 0.409999999999999 9.13495524667026 7.5142222322471 4.75577493461782 0 0 0
351 117 1 0.409999999999999 6.0313815161627 7.16018532177171 6.6855806909936 0 0 0
513 171 1 0.409999999999999 9.70119610611159 8.58493450145291 9.14515789041454 0 0 0
325 109 2 -0.819999999999999 -2.19254382230875 3.00483534620289 8.77798099134588 0 0 0
487 163 2 -0.819999999999999 4.51712011086136 4.19481363452059 6.71975016310598 0 0 0
496 166 2 -0.819999999999999 2.14895435760479 6.55600636965651 7.86185281356667 0 0 0
490 164 2 -0.819999999999999 5.22084423514117 5.34686828367228 9.94387030705813 0 0 0
337 113 2 -0.819999999999999 6.97214336095083 1.81537005354664 5.4813697306778 0 0 0
499 167 2 -0.819999999999999 8.72540105771506 5.74674886257817 9.53398684191598 0 0 0
349 117 2 -0.819999999999999 6.92863037341848 6.7205252725751 6.90763145697436 0 0 0
493 165 2 -0.819999999999999 9.02067436577061 0.391272055237653 10.4010288896196 0 0 0
495 165 1 0.409999999999999 8.7172569379634 -0.525797432572165 10.0541302885674 0 0 0
645 215 1 0.409999999999999 1.67795734942008 56.5088296396712 7.91527647199342 0 0 0
36 12 1 0.409999999999999 8.19677784626216 10.5525398321173 -1.07073112003588 0 0 0
189 63 1 0.409999999999999 4.40616575918088 10.344104461837 0.748973403877785 0 0 0
808 270 2 -0.819999999999999 7.00880560964717 58.9526424344 12.8024780701138 0 0 0
815 272 1 0.409999999999999 3.59807483908687 2.84954604139149 11.9500749229547 0 0 0
666 222 1 0.409999999999999 7.63893981899239 5.99159869658038 13.2510909885563 0 0 0
665 222 1 0.409999999999999 8.33425672178977 4.98164236902372 12.0909720738168 0 0 0
522 174 1 0.409999999999999 10.5990029120409 9.21940637218042 14.1331003614554 0 0 0
520 174 2 -0.819999999999999 9.99258242433885 8.49504771818835 13.7686835044335 0 0 0
521 174 1 0.409999999999999 10.4871919347894 8.03255463100375 13.0476792547607 0 0 0
651 217 1 0.409999999999999 1.04975716243377 0.800724884046056 14.833021172665 0 0 0
660 220 1 0.409999999999999 4.20189577443489 5.54755318336696 16.1709108777443 0 0 0
822 274 1 0.409999999999999 -1.45587684622528 7.53449399233889 15.261519413024 0 0 0
831 277 1 0.409999999999999 1.8117665958436 4.56431291492214 14.8388907528298 0 0 0
816 272 1 0.409999999999999 4.54832461074108 4.165133966852 11.9675295918318 0 0 0
672 224 1 0.409999999999999 3.88300951542701 7.73325416906994 13.4903913528024 0 0 0
834 278 1 0.409999999999999 1.66646375474598 3.65379269217861 12.00830068595 0 0 0
657 219 1 0.409999999999999 7.10054245115919 4.16531248734398 15.6499631005737 0 0 0
837 279 1 0.409999999999999 8.34831774308285 8.83283567484327 17.6613048692188 0 0 0
649 217 2 -0.819999999999999 0.645041087714553 1.63845866220349 14.3884353761022 0 0 0
658 220 2 -0.819999999999999 4.52527803829428 4.87822046115455 15.518276073627 0 0 0
820 274 2 -0.819999999999999 -2.09012293090004 6.76591850036454 15.4552732095951 0 0 0
814 272 2 -0.819999999999999 3.90644548842711 3.65448124065793 12.5406040688951 0 0 0
655 219 2 -0.819999999999999 7.71123028284365 3.41334422306618 15.9334136771298 0 0 0
664 222 2 -0.819999999999999 7.46457701347797 5.17777301073809 12.6461379173778 0 0 0
650 217 1 0.409999999999999 -0.370828607237417 1.64221062522051 14.2830506264923 0 0 0
659 220 1 0.409999999999999 4.27073110810525 4.90397622831384 14.5342509681725 0 0 0
821 274 1 0.409999999999999 -2.9787462854929 7.07085618944803 15.0711942986539 0 0 0
656 219 1 0.409999999999999 8.67979185531858 3.77288633596367 15.8548954310059 0 0 0
809 270 1 0.409999999999999 7.09027310726567 59.9528953008477 12.7001020703473 0 0 0
829 277 2 -0.819999999999999 0.969264515406889 5.14419153000107 14.6973314597686 0 0 0
670 224 2 -0.819999999999999 4.74720964297909 7.24665021868209 13.2708027745437 0 0 0
832 278 2 -0.819999999999999 0.684801201824617 3.40169485944261 11.6972529694171 0 0 0
679 227 2 -0.819999999999999 7.49143521855784 10.6300154449693 14.3636669381658 0 0 0
830 277 1 0.409999999999999 1.15349272815491 6.05823466157665 15.0779055852342 0 0 0
671 224 1 0.409999999999999 4.72822073526952 6.74747418640691 12.3579143763991 0 0 0
840 280 1 0.409999999999999 3.99328425864189 10.3264276219254 12.2015049947713 0 0 0
1130 377 1 0.409999999999999 5.33097033065002 58.0724142567589 14.7764275682831 0 0 0
838 280 2 -0.819999999999999 5.00459734985145 10.4308349393085 12.1638663955429 0 0 0
1006 336 2 -0.819999999999999 5.25513410681218 9.47794008390996 16.4054292217201 0 0 0
1000 334 2 -0.819999999999999 2.81671252827942 10.6183086537447 14.461568216299 0 0 0
1003 335 2 -0.819999999999999 2.48888918106182 7.65775613228413 16.3832485280731 0 0 0
989 330 1 0.409999999999999 9.95897990558449 6.35603491258083 22.7951894180158 0 0 0
812 271 1 0.409999999999999 1.37964972309639 2.18074971497476 17.3115057002018 0 0 0
810 270 1 0.409999999999999 6.76429487483985 58.4673152103532 11.9051061024645 0 0 0
1129 377 2 -0.819999999999999 4.36395865659531 58.4478066021879 14.8649744272525 0 0 0
1004 335 1 0.409999999999999 1.63942129807642 7.96969391516948 16.8848353378504 0 0 0
661 221 2 -0.819999999999999 2.10162879367347 6.32685038967158 11.4121486308199 0 0 0
674 225 1 0.409999999999999 6.67092362533884 8.39552675270877 11.8009920678919 0 0 0
1136 379 1 0.409999999999999 -2.72810676596623 0.297474857792692 20.0845482014889 0 0 0
802 268 2 -0.819999999999999 2.50507971616821 57.505828658784 11.9058480190661 0 0 0
835 279 2 -0.819999999999999 9.07034518771874 9.27525380689659 17.0260208674846 0 0 0
836 279 1 0.409999999999999 8.72407128365164 10.1964346862958 16.6416506692103 0 0 0
1005 335 1 0.409999999999999 3.34430813773603 7.839565410582 16.9134310297793 0 0 0
1131 377 1 0.409999999999999 4.36589868268949 59.36219469969 14.3763795054803 0 0 0
817 273 2 -0.819999999999999 7.28968266381545 0.160699140578825 16.203436863708 0 0 0
1008 336 1 0.409999999999999 5.85163028801393 9.68430518938956 15.6458291720786 0 0 0
673 225 2 -0.819999999999999 7.63273530203602 8.51303327883954 11.5650648928302 0 0 0
675 225 1 0.409999999999999 8.09339213098091 8.19243685844031 12.3975025470282 0 0 0
494 165 1 0.409999999999999 9.73404627857471 0.342064750314499 11.0695696913136 0 0 0
681 227 1 0.409999999999999 6.71848323608745 10.6469830848617 13.6796582241433 0 0 0
833 278 1 0.409999999999999 0.269623328541834 2.75407068309276 12.341473459462 0 0 0
811 271 2 -0.819999999999999 2.26038354563069 2.69568212237185 17.1108729777076 0 0 0
663 221 1 0.409999999999999 1.47623131936583 5.58448626567779 11.0878125751717 0 0 0
818 273 1 0.409999999999999 7.31631277903862 -0.0504004448382996 17.2063378417328 0 0 0
669 223 1 0.409999999999999 1.4222956842576 9.04824739036548 10.8001027866141 0 0 0
968 323 1 0.409999999999999 0.018208649555234 56.7230425285854 17.0003343236306 0 0 0
667 223 2 -0.819999999999999 2.1848842834527 9.74226523590066 10.7204589522128 0 0 0
803 268 1 0.409999999999999 1.79292788969312 56.8462145105845 12.2826125855532 0 0 0
668 223 1 0.409999999999999 2.06305561694548 10.4734067294846 11.4087896554425 0 0 0
662 221 1 0.409999999999999 3.01248167826248 6.14702051595345 11.075008486627 0 0 0
1293 431 1 0.409999999999999 4.11404552455992 56.9026643052631 16.5783987999467 0 0 0
813 271 1 0.409999999999999 2.76338233487737 2.19573736915681 16.4040046605049 0 0 0
1135 379 2 -0.819999999999999 -2.38735313113208 -0.498088384368829 19.5116783769953 0 0 0
804 268 1 0.409999999999999 3.2023507636496 57.7275923302736 12.6685771198914 0 0 0
1007 336 1 0.409999999999999 5.77160884183024 9.45683261284673 17.2797413654109 0 0 0
1168 390 2 -0.819999999999999 9.38301214285078 8.10039072009748 20.3673981427759 0 0 0
956 319 1 0.409999999999999 -0.894727333189389 56.6468213387412 13.8731284761506 0 0 0
824 275 1 0.409999999999999 -0.981754547117237 5.59091277269831 17.3670537091022 0 0 0
825 275 1 0.409999999999999 0.631006330124825 5.52969143995259 17.7344391854154 0 0 0
827 276 1 0.409999999999999 4.77463284170122 1.85330227366771 18.5420938859114 0 0 0
995 332 1 0.409999999999999 6.42862568024317 9.04724903964029 20.2571110716419 0 0 0
1140 380 1 0.409999999999999 0.541709079321787 -0.0502650102117255 20.1799018460828 0 0 0
806 269 1 0.409999999999999 5.30666859362702 56.4970028581153 13.5048167019 0 0 0
1174 392 2 -0.819999999999999 4.56815588893979 10.4004540735293 22.1366542784707 0 0 0
828 276 1 0.409999999999999 5.76940274272918 2.29085046241064 17.4078042242551 0 0 0
1312 438 2 -0.819999999999999 3.08297473068397 7.68925199307309 23.3657370668911 0 0 0
823 275 2 -0.819999999999999 -0.259661899051219 5.72640538487544 18.1163341925051 0 0 0
826 276 2 -0.819999999999999 5.46437149824688 2.58824159171812 18.3617984705275 0 0 0
1459 487 2 -0.819999999999999 -3.69277263910156 1.62516098563437 21.5592226359879 0 0 0
1460 487 1 0.409999999999999 -3.8794819686446 2.6433056922188 21.5180574004435 0 0 0
990 330 1 0.409999999999999 8.64654675162129 7.42660120800492 22.8227660465809 0 0 0
1178 393 1 0.409999999999999 7.41459387037282 9.36656494244833 22.1720473489059 0 0 0
1461 487 1 0.409999999999999 -4.48673986560314 1.05007683478618 21.1860027059116 0 0 0
999 333 1 0.409999999999999 6.05931604116548 7.71498406991162 18.4721006715139 0 0 0
997 333 2 -0.819999999999999 5.91343131153164 6.72556346378178 18.3824072066543 0 0 0
1002 334 1 0.409999999999999 3.19395788170191 10.2239230334991 15.3375704672874 0 0 0
998 333 1 0.409999999999999 6.33475023686085 6.39643916429842 17.5127498051767 0 0 0
1176 392 1 0.409999999999999 4.36328167906549 9.59063764821399 22.7238517537808 0 0 0
1149 383 1 0.409999999999999 6.18535520275199 6.3615235601415 21.6541827519047 0 0 0
1150 384 2 -0.819999999999999 9.1188979175613 1.94486586951891 21.7901761665898 0 0 0
984 328 1 0.409999999999999 -1.20452957561479 2.62396444467205 18.0687634783513 0 0 0
1146 382 1 0.409999999999999 1.53238483835889 5.12407000817121 20.2956404146338 0 0 0
993 331 1 0.409999999999999 3.77138786607164 9.35749288893836 20.0960024945674 0 0 0
978 326 1 0.409999999999999 2.17366383200256 1.94974696210322 21.1997532033511 0 0 0
987 329 1 0.409999999999999 4.3725503947324 5.40291299851668 18.9722990390852 0 0 0
996 332 1 0.409999999999999 7.33397866584993 10.2972817378248 19.8404709007575 0 0 0
981 327 1 0.409999999999999 6.84606160765323 3.74968145598175 20.3647682767094 0 0 0
1143 381 1 0.409999999999999 3.65921512898238 5.24565297955004 22.9053635626509 0 0 0
1152 384 1 0.409999999999999 8.24157200724153 2.18510111168345 22.1689025598548 0 0 0
982 328 2 -0.819999999999999 -0.586590494087968 2.01621488618288 18.647331499427 0 0 0
1144 382 2 -0.819999999999999 1.12455291934508 4.89246601635465 21.1884151935111 0 0 0
976 326 2 -0.819999999999999 2.62444394602247 1.87219833570516 20.2952474865498 0 0 0
992 331 1 0.409999999999999 3.53000702124095 7.71319295423573 20.3064526718331 0 0 0
985 329 2 -0.819999999999999 3.37893504618469 5.08989466190473 18.9831441287695 0 0 0
1147 383 2 -0.819999999999999 6.2697195077133 7.3759037850007 21.8746930361641 0 0 0
979 327 2 -0.819999999999999 7.27829271195554 4.65198221199268 20.5923686491316 0 0 0
1141 381 2 -0.819999999999999 4.29213327951947 4.61986591600869 22.4409982301775 0 0 0
1177 393 2 -0.819999999999999 7.85956759488174 10.1166566979323 22.7614827510892 0 0 0
983 328 1 0.409999999999999 -1.19274744405092 1.28453314584207 19.0534887497385 0 0 0
1145 382 1 0.409999999999999 0.431692535887606 4.15706979430477 21.1169316311928 0 0 0
977 326 1 0.409999999999999 2.06003097025772 2.13548966538607 19.4915103221465 0 0 0
986 329 1 0.409999999999999 3.1362786247177 4.42152261151785 18.2545690103624 0 0 0
1148 383 1 0.409999999999999 6.17292369434406 7.55764719707718 22.8703116808418 0 0 0
980 327 1 0.409999999999999 7.57163874053213 5.00314804797276 19.6600915327594 0 0 0
1142 381 1 0.409999999999999 4.14328315295581 4.55535330435368 21.4464179051316 0 0 0
1151 384 1 0.409999999999999 9.70008871490182 1.49495967635861 22.5184968184881 0 0 0
1170 390 1 0.409999999999999 8.99023587319354 7.19628068985249 20.1590294464247 0 0 0
991 331 2 -0.819999999999999 3.23965001319073 8.54814875675833 19.7870272189903 0 0 0
1169 390 1 0.409999999999999 10.1664859170667 8.28126619417872 19.7517904217669 0 0 0
994 332 2 -0.819999999999999 6.56749236422298 9.70795175069602 19.4895866540217 0 0 0
1164 388 1 0.409999999999999 1.91635587609728 10.2276794717505 17.6744193933068 0 0 0
1172 391 1 0.409999999999999 0.681522994932616 10.7525027914917 22.4527823677785 0 0 0
967 323 2 -0.819999999999999 1.03886193975296 56.6549041820117 17.0301764734989 0 0 0
1299 433 1 0.409999999999999 -1.84069283654204 -0.099651819941164 23.1327752167494 0 0 0
680 227 1 0.409999999999999 8.40220053368201 10.5285734239568 13.9675531701045 0 0 0
969 323 1 0.409999999999999 1.39553589442114 56.5484561507881 17.9882136040947 0 0 0
819 273 1 0.409999999999999 6.70806051456381 -0.473356622443709 15.6257569309129 0 0 0
988 330 2 -0.819999999999999 9.37308825991429 6.97497763176597 23.3902195652936 0 0 0
1314 438 1 0.409999999999999 2.37384384404771 8.44047978207083 23.1870300856146 0 0 0
1310 437 1 0.409999999999999 0.894092172284704 6.31836463847525 25.3682179099965 0 0 0
1167 389 1 0.409999999999999 4.73734983609482 4.47719356358977 25.9041341158626 0 0 0
1161 387 1 0.409999999999999 5.43775000556698 8.60336696826239 25.4045163240823 0 0 0
1470 490 1 0.409999999999999 -0.0109648304590136 4.27589347107468 27.1002193431447 0 0 0
1329 443 1 0.409999999999999 7.02614855705304 8.56460639486105 28.514279948232 0 0 0
1473 491 1 0.409999999999999 2.83680976779218 1.93234073612861 26.0576279152387 0 0 0
1306 436 2 -0.819999999999999 1.20914043669852 0.0611602790312685 24.1477309252798 0 0 0
1323 441 1 0.409999999999999 6.63177352514249 2.88804215467248 27.8177785859221 0 0 0
1485 495 1 0.409999999999999 7.05407579561685 6.30421734845425 27.312522897637 0 0 0
1468 490 2 -0.819999999999999 -0.560280501434677 3.46318845531649 27.336067883491 0 0 0
1300 434 2 -0.819999999999999 4.45080268589552 1.77004452726893 24.3768160226126 0 0 0
1309 437 2 -0.819999999999999 1.20226847317057 6.18842947868561 26.363385511426 0 0 0
1471 491 2 -0.819999999999999 2.3966879675501 1.72626775858905 26.95779159049 0 0 0
1469 490 1 0.409999999999999 0.0246439308702303 2.69453284717217 27.6356866818144 0 0 0
1319 440 1 0.409999999999999 5.00508849123255 7.05178542837754 28.0221778517565 0 0 0
1472 491 1 0.409999999999999 2.36695817975934 2.59819526389793 27.4619957054108 0 0 0
1315 439 2 -0.819999999999999 2.57855276205673 4.20395014674656 29.3329967308117 0 0 0
1318 440 2 -0.819999999999999 4.15223960252516 7.09456835040392 28.5409857192628 0 0 0
1327 443 2 -0.819999999999999 6.96253774486587 9.5869201032898 28.2982687107494 0 0 0
1321 441 2 -0.819999999999999 5.63980079796501 3.09213464082093 27.8675564581341 0 0 0
1483 495 2 -0.819999999999999 7.71909242447642 6.34000158817232 28.0574238554324 0 0 0
1656 552 1 0.409999999999999 4.14968044840772 10.6362374196744 28.055471530544 0 0 0
1322 441 1 0.409999999999999 5.51562416634473 3.46909669054843 28.7932586356713 0 0 0
1484 495 1 0.409999999999999 7.69826834126383 5.59057655164651 28.730875334268 0 0 0
1156 386 2 -0.819999999999999 7.31873153199693 4.53035038243888 24.1568803854492 0 0 0
1160 387 1 0.409999999999999 5.57729484543192 7.03942415780442 25.1186223695018 0 0 0
1336 446 2 -0.819999999999999 9.30251117604806 9.24238611363991 25.9708439703229 0 0 0
1337 446 1 0.409999999999999 9.47511576138838 9.50231141981863 24.9868869000083 0 0 0
1623 541 1 0.409999999999999 -1.99711819767763 2.4534487051813 25.0498883793191 0 0 0
1621 541 2 -0.819999999999999 -1.80703870569451 1.45668127021225 24.908046287271 0 0 0
1622 541 1 0.409999999999999 -1.65776255754964 1.02094895155298 25.8421470957214 0 0 0
1792 598 2 -0.819999999999999 1.27595734998976 3.52834546105093 24.2498469386843 0 0 0
1153 385 2 -0.819999999999999 3.1407809985799 9.81288449279644 25.9835606847196 0 0 0
1320 440 1 0.409999999999999 4.16638061271418 7.01352887647124 29.5399618510133 0 0 0
1328 443 1 0.409999999999999 7.16265744828621 9.71642852915106 27.2971379359433 0 0 0
1159 387 2 -0.819999999999999 6.12328911302513 7.91266520971571 25.2226106812732 0 0 0
1301 434 1 0.409999999999999 3.78434116169408 2.5072613796103 24.1495454350354 0 0 0
1311 437 1 0.409999999999999 1.00573136000726 6.94910777526431 26.9338553759445 0 0 0
1165 389 2 -0.819999999999999 4.18835453130397 5.25759059386232 25.5678757643828 0 0 0
1338 446 1 0.409999999999999 8.60471437427738 8.50540469582333 25.9728098073087 0 0 0
1166 389 1 0.409999999999999 3.3725284117601 5.56679254133992 26.1450813120968 0 0 0
1492 498 2 -0.819999999999999 10.249863800562 10.5583100747563 28.6545760396395 0 0 0
1155 385 1 0.409999999999999 2.8108356111692 9.28717404780511 26.7800326196421 0 0 0
1493 498 1 0.409999999999999 11.111735729137 10.0366892362643 28.6545335877161 0 0 0
1317 439 1 0.409999999999999 2.8269947490348 4.7198045198539 30.1667262039659 0 0 0
1794 598 1 0.409999999999999 0.387012516900907 3.29606182746992 24.7115547781404 0 0 0
1494 498 1 0.409999999999999 9.423702665434 10.0778724926775 28.2959143397131 0 0 0
1467 489 1 0.409999999999999 6.01963109402594 0.709212203565502 26.9058811347714 0 0 0
1154 385 1 0.409999999999999 2.40662881764103 10.4240478323462 25.7322040722881 0 0 0
1778 593 1 0.409999999999999 4.67986352891651 57.6989746605183 29.0018257788908 0 0 0
1638 546 1 0.409999999999999 6.56624064966403 -0.226446509224379 34.0476238885197 0 0 0
1776 592 1 0.409999999999999 1.72792293088789 58.7235334550099 29.8748891651975 0 0 0
1456 486 2 -0.819999999999999 8.97055937042473 57.3673356489086 27.5606112007605 0 0 0
1777 593 2 -0.819999999999999 3.81626107470985 57.391042021256 29.4509153589231 0 0 0
1302 434 1 0.409999999999999 5.36554417767607 1.94246981869275 23.9464429761676 0 0 0
1458 486 1 0.409999999999999 9.83456189738102 56.8682142289446 27.4183536001889 0 0 0
1308 436 1 0.409999999999999 1.70994080788291 0.369915051242066 24.9955089603789 0 0 0
1936 646 2 -0.819999999999999 -0.736541403757577 56.7102483572449 33.1765958195917 0 0 0
1313 438 1 0.409999999999999 3.09022933951254 7.23415394672075 24.264628759353 0 0 0
1648 550 2 -0.819999999999999 0.995379518812341 7.50040157775277 30.086699853228 0 0 0
2143 715 2 -0.819999999999999 0.85555571727749 10.5129708707247 36.0369538532628 0 0 0
1800 600 1 0.409999999999999 8.27149982978266 0.418541847670093 35.9815080922496 0 0 0
1974 658 1 0.409999999999999 -1.03188561428106 8.43647296397096 35.5936283103022 0 0 0
1158 386 1 0.409999999999999 8.07300584528522 5.22571966289459 24.1011005348058 0 0 0
1316 439 1 0.409999999999999 2.35028889540421 4.99760851090153 28.7256232115402 0 0 0
1649 550 1 0.409999999999999 0.212266496549422 7.44690747231044 29.3656399788196 0 0 0
1946 649 1 0.409999999999999 0.653749668551219 3.59687971471723 35.6810509957547 0 0 0
1813 605 2 -0.819999999999999 3.71458301137756 10.5261664738054 34.2156161083417 0 0 0
1947 649 1 0.409999999999999 1.3037268682075 5.04704086061635 35.8024069878211 0 0 0
1179 393 1 0.409999999999999 7.20813074137301 10.168226429015 23.5520997605696 0 0 0
1779 593 1 0.409999999999999 3.13032249390318 57.3561623262006 28.6933202569244 0 0 0
1655 552 1 0.409999999999999 4.79861646953202 10.4650376599057 29.5190227232603 0 0 0
1629 543 1 0.409999999999999 6.72531044871066 2.48344651187348 30.9182133649188 0 0 0
1465 489 2 -0.819999999999999 5.76188113921231 -0.290208792003847 26.8686134781515 0 0 0
1796 599 1 0.409999999999999 1.59682381330913 1.22548690119953 35.1328910015051 0 0 0
1650 550 1 0.409999999999999 1.27435701011489 6.49910867594469 30.194790410561 0 0 0
1478 493 1 0.409999999999999 -0.362645144077527 4.27840359282222 29.6261965926963 0 0 0
1627 543 2 -0.819999999999999 6.91963846192185 1.50131359116471 30.9105798251189 0 0 0
1628 543 1 0.409999999999999 7.8775668803182 1.2379442796775 31.1351629407041 0 0 0
1818 606 1 0.409999999999999 9.38499120469587 9.00496493137296 33.3968139281927 0 0 0
1803 601 1 0.409999999999999 3.1640676319619 7.55071730666853 35.5225177853718 0 0 0