LAMMPS data file via write_data, version 12 Dec 2018, timestep = 1000

9720 atoms
2 atom types
6480 bonds
1 bond types
3240 angles
1 angle types

-4.4628106762167441e-02 9.3446281067621761e+00 xlo xhi
-2.6776864057303840e-01 5.6067768640572865e+01 ylo yhi
-8.9256213524333816e-01 1.8689256213524328e+02 zlo zhi

Masses

1 1.00794
2 15.9994

Atoms # full

27 9 1 0.409999999999999 8.57763489633046 8.69138644191886 1.88625288164919
650 217 1 0.409999999999999 3.67834350079569 -0.0356976714317249 13.7349927221713
12 4 1 0.409999999999999 0.0505558903652554 4.1557366399857 -0.286410142495296
174 58 1 0.409999999999999 4.65785335253565 4.0032560911203 0.250099590754547
21 7 1 0.409999999999999 0.324863961598543 6.1996519817449 -0.841689002906182
183 61 1 0.409999999999999 1.35673026421802 4.60866429655361 2.72872626616383
6 2 1 0.409999999999999 1.59418381866357 1.02588163291071 -0.828789682697277
1062 354 1 0.409999999999999 8.21524311782236 27.0334609843633 19.5354162271398
15 5 1 0.409999999999999 6.38758496053823 2.72605872636075 1.81229622174677
177 59 1 0.409999999999999 4.7661797439382 2.26399874636013 5.01483843686074
24 8 1 0.409999999999999 5.34719198222802 7.59303458953638 1.74800613906699
186 62 1 0.409999999999999 3.14000588804104 5.86294938299068 3.05097425283799
9571 3191 2 -0.819999999999999 2.25805492158145 6.31875472196757 187.883799718295
171 57 1 0.409999999999999 11.2781421669006 1.77326665284872 4.07572538162553
18 6 1 0.409999999999999 8.97635809832965 5.85153512511236 2.19665298807483
180 60 1 0.409999999999999 7.55772445488714 4.2447656681747 6.92970104685697
648 216 1 0.409999999999999 7.96114605138457 57.0932770934917 11.7853340564021
189 63 1 0.409999999999999 9.11802764431185 5.75311443489113 5.79349100332044
322 108 2 -0.819999999999999 9.82804120442607 57.1762201364343 3.65643886145045
813 271 1 0.409999999999999 1.72571506714933 -0.0967314386292568 16.6329809738993
68 23 1 0.409999999999999 5.17442919722111 21.9722532210472 0.842434287624805
10 4 2 -0.819999999999999 0.660726314357569 3.37162546039739 -0.173031733865718
172 58 2 -0.819999999999999 3.65924305923007 3.97400076356093 0.293795211158804
334 112 2 -0.819999999999999 1.01759903689242 5.19569286419054 6.96708662131983
4 2 2 -0.819999999999999 1.42242673928165 0.27334401209476 -0.193040941015063
164 55 1 0.409999999999999 1.8540532735324 -0.0764753099173874 3.61049830450228
328 110 2 -0.819999999999999 -0.528901295442028 5.35904517087526 9.79075254399393
13 5 2 -0.819999999999999 6.70294939874901 3.38440907523764 2.49575006953561
175 59 2 -0.819999999999999 5.58909645845516 2.72299749851589 5.34967757845358
337 113 2 -0.819999999999999 4.24259544607794 4.83655428988003 6.93189451484392
7 3 2 -0.819999999999999 5.81815502949319 1.58649209098722 0.526819595582992
169 57 2 -0.819999999999999 12.0139749925351 2.34764295246766 4.43438003338077
331 111 2 -0.819999999999999 7.66118607404111 0.644791942402458 5.76191626077188
16 6 2 -0.819999999999999 9.20974761904317 4.88033916515844 2.24457239635425
178 60 2 -0.819999999999999 8.0585089648341 3.85555866764948 7.70282545399143
340 114 2 -0.819999999999999 6.90671290949428 1.50507665023026 8.65607568072499
2 1 1 0.409999999999999 -1.57871800554904 1.39542540381486 0.563051372802795
9632 3211 1 0.409999999999999 2.3369943810592 25.2652143340595 187.605744578825
11 4 1 0.409999999999999 0.953999802887109 3.3127360056477 0.781176106374311
173 58 1 0.409999999999999 3.31417474772053 3.33407977208067 -0.392802677277216
5 2 1 0.409999999999999 0.77934685679307 0.57268510001475 0.511824652601561
28 10 2 -0.819999999999999 1.9144600860693 10.831044578773 -0.375678859659108
14 5 1 0.409999999999999 6.028111698209 3.45097527392214 3.23069933175044
176 59 1 0.409999999999999 6.26245803566088 2.03837111530839 5.62871008707763
1164 388 1 0.409999999999999 1.8452272804901 8.36853823180676 18.6826328568266
170 57 1 0.409999999999999 11.8959441284959 3.28456881138858 4.10539545022329
17 6 1 0.409999999999999 8.39786732357206 4.35456390245191 2.49834821561273
179 60 1 0.409999999999999 7.86416435390372 2.8767370060173 7.76706969817207
491 164 1 0.409999999999999 3.98998901335713 0.574677676132581 9.80038225872568
818 273 1 0.409999999999999 7.38161562025997 -0.00506164427142097 16.1772942965615
39 13 1 0.409999999999999 0.716475423889061 14.5575789937833 0.47079998126077
201 67 1 0.409999999999999 0.719663973635339 12.1705068855576 1.27616548658321
33 11 1 0.409999999999999 5.00533038568248 11.8369595637621 -0.095497046459706
195 65 1 0.409999999999999 4.43967381796898 9.723144472283 1.59799483397709
9576 3192 1 0.409999999999999 6.49860879605464 4.47367259305571 188.80513400388
204 68 1 0.409999999999999 2.34493763690069 13.4619745969675 2.05318273760642
9573 3191 1 0.409999999999999 2.67197535710339 5.41868435105034 188.019931715039
198 66 1 0.409999999999999 9.70439820199489 9.19415978480474 4.35130847503536
45 15 1 0.409999999999999 6.61862582253 13.7494948072403 1.30635149350585
207 69 1 0.409999999999999 8.12969924052189 13.4796075716104 4.93763137685859
1187 396 1 0.409999999999999 9.26854289790383 18.3281068364214 22.1583833856775
181 61 2 -0.819999999999999 2.32682061947326 4.44169217324421 2.90488968393704
343 115 2 -0.819999999999999 0.544344693604878 7.90394766261879 7.5477255523841
1163 388 1 0.409999999999999 0.760389173385519 8.43957739485661 19.9011042427697
86 29 1 0.409999999999999 1.32369510855386 27.2247601985416 3.40100353436477
352 118 2 -0.819999999999999 1.73565015884823 10.6705997094504 4.0390268078436
22 8 2 -0.819999999999999 5.7952410999588 7.46169125820348 0.863705088198303
184 62 2 -0.819999999999999 3.61777056146446 6.7387800424715 3.11917567674135
346 116 2 -0.819999999999999 5.52185194486947 7.13516309774338 5.29304790871893
31 11 2 -0.819999999999999 4.74561433421749 11.0277184247387 0.431443720153332
193 65 2 -0.819999999999999 4.25116425482811 9.39438433601479 2.52339688755402
355 119 2 -0.819999999999999 6.8115351885698 9.84151336403164 3.1679527794593
25 9 2 -0.819999999999999 8.40801046617531 7.73545460434044 1.64664764706986
187 63 2 -0.819999999999999 8.39618815402409 6.16501300790521 5.23736495203586
349 117 2 -0.819999999999999 5.30642816354389 9.28425073376235 7.22100325795605
1191 397 1 0.409999999999999 2.1254076037304 19.2849646102235 22.3658839059552
196 66 2 -0.819999999999999 8.934170221159 8.75012535630535 4.8090973037307
358 120 2 -0.819999999999999 7.87692897156292 11.4054856006392 6.67022708640717
69 23 1 0.409999999999999 5.67298313576207 23.4741445253735 1.2453725412377
182 61 1 0.409999999999999 2.7898406731312 4.22803904674111 2.04468484769294
8 3 1 0.409999999999999 5.2971996907847 0.897575641508658 1.03079086548959
70 24 2 -0.819999999999999 8.3848204681499 21.5687557510075 1.06771302172205
23 8 1 0.409999999999999 5.88244506756412 6.4832953681842 0.676290324933826
185 62 1 0.409999999999999 4.23544106774924 6.72117815749019 3.90540887373397
32 11 1 0.409999999999999 3.79022724976821 10.8000018518225 0.243376567729196
194 65 1 0.409999999999999 3.7097796136378 8.55500541970942 2.47509245574763
26 9 1 0.409999999999999 7.46721953640535 7.63485715929137 1.32294579568038
188 63 1 0.409999999999999 8.70768027436432 7.04882975963654 4.88832138561719
35 12 1 0.409999999999999 5.99275374405788 10.3972569888547 -0.647912093642716
197 66 1 0.409999999999999 8.0879474678967 8.96442551364191 4.32127367418713
48 16 1 0.409999999999999 -1.24228216091821 18.7899153548799 -0.24067915781745
210 70 1 0.409999999999999 1.22047049952696 18.9553775815448 3.10421503952439
57 19 1 0.409999999999999 4.57901723320101 19.817588702531 0.0384330215629012
219 73 1 0.409999999999999 2.11347127282909 20.6632945167393 4.89437403718419
71 24 1 0.409999999999999 8.54029682388861 20.6548643373853 0.69272025027281
213 71 1 0.409999999999999 2.3712467177511 17.1032079139006 2.32135806520559
1159 387 2 -0.819999999999999 9.23344783287394 5.79146740509684 20.4992616126814
222 74 1 0.409999999999999 4.91528631579236 18.2446579288105 4.70612587809222
54 18 1 0.409999999999999 6.42930807737895 17.2591758489736 -0.806390009906464
216 72 1 0.409999999999999 4.35793720116582 14.1702096783874 3.72350720967143
63 21 1 0.409999999999999 7.00652902511312 20.7235574145259 3.87066560912629
225 75 1 0.409999999999999 8.69445336270182 16.0384820390947 4.41125948870008
37 13 2 -0.819999999999999 1.43002756899685 13.867484992199 0.591637091169179
199 67 2 -0.819999999999999 0.279083876620528 11.5869797390217 1.95834888413825
361 121 2 -0.819999999999999 1.78738052878666 14.4575185411608 8.42479707162618
46 16 2 -0.819999999999999 -0.478802180652327 19.4152454092679 -0.0792801379893108
208 70 2 -0.819999999999999 0.816341666627717 18.3117638456704 2.4542667024648
370 124 2 -0.819999999999999 2.05220628587889 16.7672896809765 6.20444547949091
55 19 2 -0.819999999999999 4.45537653362036 20.2682210231836 0.922532575507105
217 73 2 -0.819999999999999 1.32266379953089 20.1721380967887 4.52916723584603
379 127 2 -0.819999999999999 3.44718259234584 20.4606239411871 6.59246085850764
498 166 1 0.409999999999999 1.93442030571693 0.292233972316985 10.6461098271172
202 68 2 -0.819999999999999 2.97209969244455 13.3536587131391 2.82449711690816
364 122 2 -0.819999999999999 5.75081173810628 11.865562473324 5.06660388278428
49 17 2 -0.819999999999999 5.60310427277703 17.4820369625498 0.779715874075643
211 71 2 -0.819999999999999 3.25896950422522 16.6613407021806 2.45054921751567
373 125 2 -0.819999999999999 4.39553473445803 15.3209354358077 6.70437355551354
898 300 2 -0.819999999999999 8.85837893201195 27.3039289203552 15.9028947143499
220 74 2 -0.819999999999999 3.95272441851882 18.3076229579227 4.44249633696024
382 128 2 -0.819999999999999 5.84104958219765 19.3559805343909 7.74237095022601
43 15 2 -0.819999999999999 6.96278020167441 12.8110578763422 1.27665421152524
205 69 2 -0.819999999999999 7.99299819888838 14.2959249465267 4.37644869310124
367 123 2 -0.819999999999999 10.5511015062877 12.6129172483509 6.05061052516909
72 24 1 0.409999999999999 7.57379959304343 21.970126326024 0.64211367519686
214 72 2 -0.819999999999999 5.08840709455445 14.3305401144075 4.3873575723922
376 126 2 -0.819999999999999 6.14555057651522 17.311126770429 5.81861162978667
61 21 2 -0.819999999999999 7.95285429979036 21.0420974628098 3.92535368057206
223 75 2 -0.819999999999999 8.85918832395675 16.9413009935289 4.80846159452739
385 129 2 -0.819999999999999 9.21185913185425 20.0822912738877 7.91448486148364
38 13 1 0.409999999999999 1.92906650066077 13.7501553512448 -0.266958024025931
200 67 1 0.409999999999999 -0.661772005409178 11.8938925008341 2.10182346454069
324 108 1 0.409999999999999 9.3320042696993 57.2111284776404 2.78884545350516
209 70 1 0.409999999999999 0.482256693475511 18.8109996872781 1.65480359590211
646 216 2 -0.819999999999999 7.16688563130187 56.5311958132299 11.5546741333974
203 68 1 0.409999999999999 2.76993343619296 12.4979662536264 3.30084441118169
50 17 1 0.409999999999999 5.11938487444296 16.9122665329053 1.44406970258552
212 71 1 0.409999999999999 3.13610327450207 15.6694275492077 2.48217101142797
44 15 1 0.409999999999999 6.19262874247196 12.1749276441876 1.22981585958112
206 69 1 0.409999999999999 7.04813257449235 14.3215972982809 4.05001657384178
1180 394 2 -0.819999999999999 3.81060783744483 16.5948607107315 21.5260794840123
215 72 1 0.409999999999999 4.69876408281184 14.7098638281381 5.226572955572
66 22 1 0.409999999999999 0.980832308691282 21.6549139391164 1.60411654190281
228 76 1 0.409999999999999 3.57006205122719 23.239351911633 4.65321560857014
75 25 1 0.409999999999999 -1.62483515316362 26.9519909576708 5.60556147836124
237 79 1 0.409999999999999 3.02896163233848 26.2621981821526 4.39462168424735
730 244 2 -0.819999999999999 3.03368481329874 27.8277403894143 13.2546046249531
231 77 1 0.409999999999999 4.5596676436861 20.0383074089033 3.86958987986852
78 26 1 0.409999999999999 2.84852729363774 23.7359028941704 1.73636400312595
240 80 1 0.409999999999999 6.01863598487937 26.0764188884836 7.02887465432168
9633 3211 1 0.409999999999999 1.02124990983995 26.0856898313034 187.093659734873
234 78 1 0.409999999999999 6.6372439684075 23.3860648454377 4.91399217400763
333 111 1 0.409999999999999 6.85419456333193 0.0763051982512311 5.92183966328664
243 81 1 0.409999999999999 6.20331913734092 25.7161018673541 1.73137509465723
64 22 2 -0.819999999999999 1.77843186196363 21.152439621786 1.93780091402468
226 76 2 -0.819999999999999 3.46174089381085 22.9750381069495 3.6948879408388
388 130 2 -0.819999999999999 0.599597059377723 23.867056210556 4.45694303316306
73 25 2 -0.819999999999999 -1.75479542147886 26.7307932883019 4.63903552472713
235 79 2 -0.819999999999999 2.08188214171058 26.2253616648042 4.71347995330062
397 133 2 -0.819999999999999 2.65063226498969 26.0879285612513 7.79028436392597
817 273 2 -0.819999999999999 8.26863348325227 0.456490495984907 16.164785878299
229 77 2 -0.819999999999999 5.27440226542921 20.5056654085224 3.34928356683052
391 131 2 -0.819999999999999 3.86819136833574 23.9307147602943 6.41121059531993
76 26 2 -0.819999999999999 3.08908947691513 24.5027910875663 1.14138554978895
238 80 2 -0.819999999999999 5.18846187277112 26.5431987611233 6.7240541128497
564 188 1 0.409999999999999 6.37238646370412 27.6364545086307 13.7336071700149
1190 397 1 0.409999999999999 2.43404686966016 17.8228186594351 21.7075046165965
232 78 2 -0.819999999999999 6.33516769870925 24.3393296024709 4.90915100381231
394 132 2 -0.819999999999999 8.9589793982852 22.3797925457248 6.45108487038491
9645 3215 1 0.409999999999999 4.75416547921292 27.84700110867 189.77653007102
241 81 2 -0.819999999999999 5.48960210320148 25.0462283920284 1.93599113865565
1045 349 2 -0.819999999999999 3.19253720513566 26.5866200039922 19.0663899762478
1153 385 2 -0.819999999999999 4.44771750377727 5.59176461009913 22.3102072467495
218 73 1 0.409999999999999 0.488076605362107 20.6817404373069 4.73834954263091
65 22 1 0.409999999999999 1.71129086378869 21.040964172553 2.92929150191248
227 76 1 0.409999999999999 4.25980173360117 22.4483651922087 3.40213982481442
74 25 1 0.409999999999999 -1.91534382027245 25.7486984056295 4.5405315121862
236 79 1 0.409999999999999 2.03013198605286 26.5819817999439 5.64628826244981
90 30 1 0.409999999999999 7.0535058111579 27.3010068034597 2.99411586343624
221 74 1 0.409999999999999 3.75550457553165 17.6279825078754 3.73596592790231
1147 383 2 -0.819999999999999 7.2722229866758 6.1687198877945 22.3933040688917
230 77 1 0.409999999999999 5.09806592445038 20.3991123651953 2.37074385540216
77 26 1 0.409999999999999 4.01742505550252 24.8093373772382 1.3516463597009
239 80 1 0.409999999999999 5.36437899384063 27.5251894744027 6.65523993980127
62 21 1 0.409999999999999 8.24313918909273 21.3797899094532 3.02998343756362
224 75 1 0.409999999999999 9.28727102827465 17.5329349372455 4.12530484748143
1046 349 1 0.409999999999999 4.1188700198745 26.7322284843279 18.7189801200678
233 78 1 0.409999999999999 5.65992953077719 24.4786837014588 5.6334590266683
1152 384 1 0.409999999999999 10.0817030380689 5.40129222968164 22.1616928945287
242 81 1 0.409999999999999 5.50596757279045 24.8293694169873 2.91205214223872
56 19 1 0.409999999999999 3.47982189726499 20.4086675169859 1.09151995854741
489 163 1 0.409999999999999 1.6426983318569 4.25418340317803 10.9604721549653
651 217 1 0.409999999999999 3.07434311191229 0.870321344316953 14.9519181438236
336 112 1 0.409999999999999 0.410397172475989 4.60465062009322 7.4980883626346
1201 401 2 -0.819999999999999 3.97150159951755 25.5932317275558 22.3964201080609
660 220 1 0.409999999999999 -3.2100223764228 3.20203719778864 12.030422493706
345 115 1 0.409999999999999 0.14275241088194 8.19074145160978 6.67797592117269
507 169 1 0.409999999999999 3.47028905941108 7.9283756699212 8.55703497904736
669 223 1 0.409999999999999 -0.101110736708888 7.9593344165249 12.4181701457048
330 110 1 0.409999999999999 -1.30022995673294 5.84649581685721 10.1999366529256
492 164 1 0.409999999999999 3.49046032813612 2.12855701501191 9.85060629042718
654 218 1 0.409999999999999 4.1046207502327 2.2625882890673 13.0049524944969
339 113 1 0.409999999999999 4.49678791081201 5.50862237024437 6.23640983224003
501 167 1 0.409999999999999 4.21821425244193 4.94755378884089 9.9807854300973
663 221 1 0.409999999999999 0.340693761452071 4.5178375061732 14.2966032037476
348 116 1 0.409999999999999 6.48050543072028 6.85291679156447 5.2568483197695
510 170 1 0.409999999999999 2.55546761120592 11.0491574889706 10.4571907210469
672 224 1 0.409999999999999 2.43234637055829 7.4389581702185 12.4963843838199
332 111 1 0.409999999999999 8.13173627947761 0.807118324853308 6.62922346434681
495 165 1 0.409999999999999 9.92415430743628 2.51676432099887 13.3433982085571
657 219 1 0.409999999999999 10.565954672183 2.54025653664351 15.4301960583778
342 114 1 0.409999999999999 6.8851563476341 0.505355664096933 8.66517570281603
504 168 1 0.409999999999999 6.23034219656308 6.28863603614869 10.3573950800048
666 222 1 0.409999999999999 4.73194554200051 4.16332949093545 13.6093837104547
351 117 1 0.409999999999999 5.96307095248483 9.62436874635801 7.89415027760989
513 171 1 0.409999999999999 8.58914429316146 8.46007402501775 8.67846008953954
675 225 1 0.409999999999999 6.14480198187648 7.97006453591326 13.8764271428405
487 163 2 -0.819999999999999 2.43475688921036 4.54774073432573 11.4956875268452
649 217 2 -0.819999999999999 3.58654203081414 0.893350274648144 14.0933647128232
496 166 2 -0.819999999999999 1.27730565560612 0.997006699376445 10.3787454753053
658 220 2 -0.819999999999999 -2.23589751388642 3.0713022425447 11.8460903168235
490 164 2 -0.819999999999999 4.18921153426271 1.50656368051635 9.49725271034994
652 218 2 -0.819999999999999 4.39523999743149 3.06264826602342 12.4801361476564
499 167 2 -0.819999999999999 5.10154985021571 5.21473459529158 9.59566135524177
661 221 2 -0.819999999999999 -0.336773767722757 5.05481350694791 13.7939263401604
493 165 2 -0.819999999999999 9.42491526770542 2.10240525054314 12.5824416816049
655 219 2 -0.819999999999999 10.8604640322535 3.35483572228697 14.930483430612
502 168 2 -0.819999999999999 6.8025547061569 6.99537815364612 10.7734203856088
664 222 2 -0.819999999999999 5.03036580465627 4.76550795244425 14.349865896316
326 109 1 0.409999999999999 1.16093121012245 0.151657121152868 7.18905416428074
488 163 1 0.409999999999999 2.21435600160062 5.39422548656392 11.9803280452113
1061 354 1 0.409999999999999 7.79004545983195 25.9191352059029 18.4200344507467
335 112 1 0.409999999999999 1.85945745238119 4.70097699383482 6.75140300007385
497 166 1 0.409999999999999 0.734389101763765 1.26558124525866 11.174420872619
659 220 1 0.409999999999999 -2.01511368784924 3.44001470822106 10.9431545262936
329 110 1 0.409999999999999 -0.863678423449608 4.74681173731768 9.07445435816659
1182 394 1 0.409999999999999 3.60399804683744 15.6623478657429 21.8222552575472
653 218 1 0.409999999999999 3.59845409468895 3.48560314653549 12.0485939435994
338 113 1 0.409999999999999 4.45756833168687 3.91749207263801 6.60159164212243
500 167 1 0.409999999999999 5.06275509393651 5.15291058323237 8.59833418308857
662 221 1 0.409999999999999 -1.25582377239822 4.78466171550233 14.0808994355829
1181 394 1 0.409999999999999 4.64567241235552 16.9104043838018 21.9767309282932
494 165 1 0.409999999999999 8.53722896875473 2.55177861336961 12.4821165598582
656 219 1 0.409999999999999 11.1983456367184 4.03860710838087 15.5772297467154
341 114 1 0.409999999999999 6.01487308287895 1.86025506939182 8.9361861588522
503 168 1 0.409999999999999 6.54103069699914 7.11494917001865 11.7311756209566
665 222 1 0.409999999999999 5.3456474415432 5.63376752024411 13.9668386030794
354 118 1 0.409999999999999 1.17085313527863 11.0022890048137 3.28339847334675
516 172 1 0.409999999999999 2.70860512078162 11.8843592631244 6.64644780392696
678 226 1 0.409999999999999 2.67402900682714 13.7678295604796 14.5525841973707
363 121 1 0.409999999999999 1.82639691486341 14.0186318665823 7.52710906712656
525 175 1 0.409999999999999 1.64364235068202 15.3616773629206 11.5131837425703
687 229 1 0.409999999999999 2.74415899796966 16.8199983752115 12.9872422298727
357 119 1 0.409999999999999 6.82377022337166 10.775754310579 3.52437248206105
519 173 1 0.409999999999999 7.60544675362957 13.2606713984295 9.50293652605852
681 227 1 0.409999999999999 3.06240792383786 11.8684210539316 13.9130340584103
366 122 1 0.409999999999999 5.66802704466186 12.8574505802349 4.97020593332155
528 176 1 0.409999999999999 4.72170923009571 15.5166414061586 9.78254019441287
690 230 1 0.409999999999999 4.48228505658266 12.252270770857 10.7098005122873
360 120 1 0.409999999999999 7.17200215351669 11.5009890190224 5.96741319590275
522 174 1 0.409999999999999 9.32786631768763 10.181072241851 11.616966171185
684 228 1 0.409999999999999 6.89450107846715 10.7833430754805 14.3460036681687
369 123 1 0.409999999999999 9.64800215226002 12.4383085062548 6.44292631777875
531 177 1 0.409999999999999 9.06182953942748 14.3845426436892 8.29907143742922
693 231 1 0.409999999999999 10.4911500040177 12.7551298922623 11.1889789974824
505 169 2 -0.819999999999999 2.88031224731956 8.11766072393736 9.3419484723634
667 223 2 -0.819999999999999 0.593223242820732 7.27624978647191 12.6446282477559
514 172 2 -0.819999999999999 3.55804233177553 11.3826929893218 6.81008695140303
676 226 2 -0.819999999999999 2.11511134464648 13.1660918938073 13.9820486049012
508 170 2 -0.819999999999999 3.29898192107091 10.8571294915277 9.81664281949058
670 224 2 -0.819999999999999 3.29977853915248 7.46517149307787 11.9995322498825
517 173 2 -0.819999999999999 7.39421330603578 12.3059366625429 9.71235008904751
679 227 2 -0.819999999999999 3.76850081683973 11.1745392046991 14.0542798419064
511 171 2 -0.819999999999999 7.75326327272882 8.73970983128737 9.15078889936119
673 225 2 -0.819999999999999 5.92774764999448 7.16586974749677 13.3231193120094
520 174 2 -0.819999999999999 8.40058201198007 9.85684373886717 11.8040704521328
682 228 2 -0.819999999999999 7.20420802852179 11.4884603958271 13.7081313902268
344 115 1 0.409999999999999 0.887408847981131 6.96837564940214 7.46404303424277
506 169 1 0.409999999999999 1.92242483408139 8.05281380634034 9.06223776133534
668 223 1 0.409999999999999 0.152120304590724 6.47188759179385 13.042645138888
353 118 1 0.409999999999999 2.58923402013613 10.2955452643829 3.67748071456776
515 172 1 0.409999999999999 3.67485931102572 11.2365204788834 7.7924190490873
677 226 1 0.409999999999999 1.32246726158175 13.6715904984344 13.6412057298639
347 116 1 0.409999999999999 5.41920584928218 7.88336700981276 5.948520585201
509 170 1 0.409999999999999 3.2573236593442 9.89841685179203 9.53535195224054
671 224 1 0.409999999999999 3.15052244304956 7.84923526251842 11.0883759802954
356 119 1 0.409999999999999 5.88228616934359 9.47611565762177 3.22247754968146
518 173 1 0.409999999999999 7.24226306070663 11.8037261573067 8.86106480077987
680 227 1 0.409999999999999 4.36603465284022 11.1391738924509 13.2532245594555
350 117 1 0.409999999999999 4.59629371589941 9.97214444474967 7.07100727352845
512 171 1 0.409999999999999 7.41798895685088 7.98254372909268 9.71139458101556
674 225 1 0.409999999999999 5.03281543907657 7.28818773522123 12.8940175868139
359 120 1 0.409999999999999 8.24346997834278 10.4753008981188 6.65043082663512
521 174 1 0.409999999999999 8.00822857396172 9.46951610376584 10.9697887327551
683 228 1 0.409999999999999 7.45676980184531 11.0637545428036 12.8387489867876
372 124 1 0.409999999999999 2.56895184005971 17.3262535979851 5.5559677920263
534 178 1 0.409999999999999 0.69880340873215 17.295155712388 8.82067080425217
696 232 1 0.409999999999999 -0.606774214930338 16.5693624076809 11.6750642218098
381 127 1 0.409999999999999 3.60825617748444 19.5162999115283 6.30558619353841
543 181 1 0.409999999999999 0.260109206533627 20.9010286217314 9.57637778788761
705 235 1 0.409999999999999 1.4596454607078 20.6866802057985 11.8801045628148
375 125 1 0.409999999999999 4.39332010114363 15.182108914727 7.69468203441632
537 179 1 0.409999999999999 3.31306904827078 17.7082673512133 9.12557563160735
699 233 1 0.409999999999999 5.22972299037645 13.8880438690419 12.3818120172573
384 128 1 0.409999999999999 6.0704805435463 18.8473856636464 6.9125023096425
546 182 1 0.409999999999999 3.83282608569974 20.6166656408451 11.7220448572751
708 236 1 0.409999999999999 4.484534914957 18.6084769557837 12.224097087315
378 126 1 0.409999999999999 5.63600395579585 16.4654565111355 5.97733631050825
540 180 1 0.409999999999999 8.05689321679544 17.9189155185366 10.2750614414964
702 234 1 0.409999999999999 5.97672102041435 15.9944630500937 11.7643025671577
387 129 1 0.409999999999999 9.71961600782893 19.5763799359226 7.21718647981489
549 183 1 0.409999999999999 7.55413973312971 18.9098445543436 12.345293331861
711 237 1 0.409999999999999 6.22348124347319 16.2462199547086 17.4783121244599
523 175 2 -0.819999999999999 0.904102572151887 14.953896541098 10.9776619921493
685 229 2 -0.819999999999999 2.97062568890819 15.9663046368588 12.5182994270673
532 178 2 -0.819999999999999 1.6801644712519 17.4766340259412 8.75755001961013
694 232 2 -0.819999999999999 -0.838898257478537 17.4198153565705 12.1471226524672
541 181 2 -0.819999999999999 0.461585433512647 21.1612822004792 10.5206572547816
703 235 2 -0.819999999999999 1.82401685271164 20.4996001017305 12.7923678819236
526 176 2 -0.819999999999999 4.21840792935651 14.6989822099511 9.50305298595453
688 230 2 -0.819999999999999 5.15751631578804 12.8046553555796 11.1985969952679
535 179 2 -0.819999999999999 4.2467218915223 17.8249740390688 9.46419420405517
697 233 2 -0.819999999999999 5.37237071398543 14.6527729314638 13.0101702939449
544 182 2 -0.819999999999999 4.72892217941729 20.9679366052461 11.4507365150704
706 236 2 -0.819999999999999 4.47806148764825 18.8720226587761 13.1887159652527
529 177 2 -0.819999999999999 8.08755031710159 14.5237474648218 8.12190102084715
691 231 2 -0.819999999999999 10.1326117764134 11.8648086735956 10.9083249922734
538 180 2 -0.819999999999999 8.12361943539666 17.6238856509495 9.32191199370401
700 234 2 -0.819999999999999 5.80285121678559 16.7483171377664 11.1306920998327
547 183 2 -0.819999999999999 7.08593555629205 19.7903910652393 12.4188575620089
709 237 2 -0.819999999999999 5.92428285391402 17.1987561582071 17.4222452258388
362 121 1 0.409999999999999 2.71236089514121 14.6989296122538 8.71826770333962
524 175 1 0.409999999999999 1.17945883165967 14.8974543043962 10.0179841418166
686 229 1 0.409999999999999 3.72588339760721 15.5150967661719 12.9936803256945
371 124 1 0.409999999999999 1.09053895999445 16.7431533199249 5.93131056770947
533 178 1 0.409999999999999 2.0234147820671 17.1507186191535 7.87667011216033
695 232 1 0.409999999999999 -0.167464274975428 17.5953652359802 12.8670889350642
365 122 1 0.409999999999999 4.92982719580354 11.5039464852864 5.50842499235286
527 176 1 0.409999999999999 4.43495817197416 13.9457558206614 10.1241389417868
689 230 1 0.409999999999999 6.07266578117719 12.5928949209485 10.8556008555382
374 125 1 0.409999999999999 3.47396823213706 15.5611582953313 6.39941900419213
536 179 1 0.409999999999999 4.40694572836469 17.1948020273326 10.2239313809267
698 233 1 0.409999999999999 6.21782462766839 14.5084404099842 13.5243345876061
368 123 1 0.409999999999999 10.7384798289188 11.941562484918 5.33356004423966
530 177 1 0.409999999999999 7.89794648393753 15.5031673506448 8.05280635675396
692 231 1 0.409999999999999 9.2990169894632 11.9953252484929 10.3716005725462
377 126 1 0.409999999999999 7.12135263478917 17.1041105049165 5.74830831625546
539 180 1 0.409999999999999 8.52963208091375 18.3554336541813 8.77420757879434
701 234 1 0.409999999999999 6.67268130114226 17.1019832676572 10.7867393245222
390 130 1 0.409999999999999 0.817606864383816 23.3665240945541 3.61913244295605
552 184 1 0.409999999999999 0.17214721214756 23.9390131916256 11.7728027796757
714 238 1 0.409999999999999 6.2141844352506 22.0888274165004 14.2766196191631
399 133 1 0.409999999999999 2.53433137446364 26.975983779783 8.23505801611822
561 187 1 0.409999999999999 1.85478985484934 23.4701478951387 9.54089847204033
723 241 1 0.409999999999999 2.98361230568522 24.8508641606389 13.1277647066362
393 131 1 0.409999999999999 3.65759949319869 22.9879076551509 6.66957976517251
555 185 1 0.409999999999999 1.10595172533698 22.6230936285509 7.46728098630457
717 239 1 0.409999999999999 3.92665920518356 23.3548712835982 9.40299196569577
9 3 1 0.409999999999999 5.58490438562417 1.53628100712797 -0.44429314958663
191 64 1 0.409999999999999 -1.36884195601274 11.9707226273077 -0.176465673596626
726 242 1 0.409999999999999 4.78598042936194 24.0618015784803 14.4891331578088
396 132 1 0.409999999999999 7.97225001361601 22.2412004034577 6.53561384925849
558 186 1 0.409999999999999 5.79417426314546 22.4680536688732 8.13584710414489
720 240 1 0.409999999999999 5.54184574305323 24.3559342994198 10.6983141715787
1215 405 1 0.409999999999999 8.64654618934868 26.0617776368856 21.2383642403793
567 189 1 0.409999999999999 7.23874229928554 24.1077239020438 7.87920980149946
729 243 1 0.409999999999999 6.93575917755835 26.6745817282976 10.3580815702329
550 184 2 -0.819999999999999 -0.653968165565217 23.7893920806722 11.2295403110606
712 238 2 -0.819999999999999 5.87788219574168 22.7663029382307 13.6224660907728
559 187 2 -0.819999999999999 2.05176556511302 24.3375523559976 9.99784479572788
721 241 2 -0.819999999999999 2.21832953244939 25.1600213867998 12.5631815282525
553 185 2 -0.819999999999999 1.89561914359606 22.4117832885268 8.04327011108552
715 239 2 -0.819999999999999 4.82701547055328 23.068322210141 9.73046407076123
562 188 2 -0.819999999999999 5.76915885073754 26.8554572337095 13.5719052486282
724 242 2 -0.819999999999999 4.46296341403664 24.9520757368698 14.8101614256561
556 186 2 -0.819999999999999 6.57503286916798 22.0029231984908 7.71883042057213