LAMMPS data file. CGCMM Style. atom_style full. Created by charmm2lammps v1.9.2 on Wed Jul  1 20:30:05 EDT 2020

       23760  atoms
       14040  bonds
       19440  angles
           0  dihedrals
           0  impropers

           5  atom types
           2  bond types
           1  angle types
           0  dihedral types
           0  improper types

      -4.712        5.206 xlo xhi
         -15      163.323 ylo yhi
           0       206.35 zlo zhi

Masses

       1     15.999  # OP
       2     30.974  # P
       3      40.08  # CAL
       4     15.999  # OR
       5      1.008  # HR

Pair Coeffs # lj/charmm/coul/long

       1         0.252001    3.03253014668         0.252001    3.03253014668  # OP
       2            0.974     3.4857303246            0.974     3.4857303246  # P
       3           0.1186    2.94139120781           0.1186    2.94139120781  # CAL
       4          0.11703     3.0928439899          0.11703     3.0928439899  # OR
       5            9e-06    1.40423455953            9e-06    1.40423455953  # HR

Atoms # full

       1       1     3         2            1.379            2.725            5.149  # CAL
       2       2     3         2            4.959            2.073                0  # CAL
       3       3     3         2            2.604            4.739             1.71  # CAL
       4       4     3         2            4.959            2.073            3.419  # CAL
       5       5     3         2           -0.978            2.779             1.71  # CAL
       6       6     3         2           -0.885            6.861             1.71  # CAL
       7       7     3         2           -4.465            7.513            6.859  # CAL
       8       8     3         2            1.472            6.807            5.149  # CAL
       9       9     3         2           -4.465            7.513             3.44  # CAL
      10      10     3         2            -2.11            4.847            5.149  # CAL
      11      11     4      -1.4            0.247            4.793            3.848  # OR
      12      11     5       0.4            0.247            4.793            4.771  # HR
      13      12     4      -1.4            0.247            4.793            0.408  # OR
      14      12     5       0.4            0.247            4.793            1.331  # HR
      15      13     2      1.18           -1.347            8.046            5.149  # P
      16      13     1    -1.045           -1.369            9.586            5.149  # OP
      17      13     1    -1.045           -0.564            7.598            6.386  # OP
      18      13     1    -1.045           -0.564            7.598            3.912  # OP
      19      13     1    -1.045           -2.774            7.473            5.149  # OP
      20      14     2      1.18           -3.368            5.039             1.71  # P
      21      14     1    -1.045           -4.712             5.79             1.71  # OP
      22      14     1    -1.045           -2.588            5.493            2.947  # OP
      23      14     1    -1.045           -2.588            5.493            0.473  # OP
      24      14     1    -1.045           -3.585            3.516             1.71  # OP
      25      15     2      1.18            2.268              7.8             1.71  # P
      26      15     1    -1.045            1.057            8.749             1.71  # OP
      27      15     1    -1.045             3.59            8.588             1.71  # OP
      28      15     1    -1.045            2.271            6.897            0.473  # OP
      29      15     1    -1.045            2.271            6.897            2.947  # OP
      30      16     2      1.18            1.841            1.539             1.71  # P
      31      16     1    -1.045            3.268            2.113             1.71  # OP
      32      16     1    -1.045            1.863                0             1.71  # OP
      33      16     1    -1.045            1.058            1.988            2.947  # OP
      34      16     1    -1.045            1.058            1.988            0.473  # OP
      35      17     2      1.18            3.862            4.546            5.149  # P
      36      17     1    -1.045            4.079            6.069            5.149  # OP
      37      17     1    -1.045            5.206            3.796            5.149  # OP
      38      17     1    -1.045            3.082            4.093            6.386  # OP
      39      17     1    -1.045            3.082            4.093            3.912  # OP
      40      18     2      1.18           -1.774            1.785            5.149  # P
      41      18     1    -1.045           -0.563            0.836            5.149  # OP
      42      18     1    -1.045           -3.096            0.997            5.149  # OP
      43      18     1    -1.045           -1.777            2.688            6.386  # OP
      44      18     1    -1.045           -1.777            2.688            3.912  # OP
      45      19     3         2           -3.333           10.886            5.149  # CAL
      46      20     3         2            0.247           10.234                0  # CAL
      47      21     3         2           -2.108             12.9             1.71  # CAL
      48      22     3         2            0.247           10.234            3.419  # CAL
      49      23     3         2            3.734            10.94             1.71  # CAL
      50      24     3         2            3.827           15.022             1.71  # CAL
      51      25     3         2            0.247           15.674            6.859  # CAL
      52      26     3         2            -3.24           14.968            5.149  # CAL
      53      27     3         2            0.247           15.674             3.44  # CAL
      54      28     3         2            2.602           13.008            5.149  # CAL
      55      29     4      -1.4           -4.465           12.954            4.771  # OR
      56      29     5       0.4           -4.465           12.954            3.848  # HR
      57      30     4      -1.4           -4.465           12.954            1.331  # OR
      58      30     5       0.4           -4.465           12.954            0.408  # HR
      59      31     2      1.18            3.365           16.207            5.149  # P
      60      31     1    -1.045            3.343           17.747            5.149  # OP
      61      31     1    -1.045            4.148           15.759            6.386  # OP
      62      31     1    -1.045            4.148           15.759            3.912  # OP
      63      31     1    -1.045            1.938           15.634            5.149  # OP
      64      32     2      1.18            1.344             13.2             1.71  # P
      65      32     1    -1.045                0           13.951             1.71  # OP
      66      32     1    -1.045            2.124           13.654            2.947  # OP
      67      32     1    -1.045            2.124           13.654            0.473  # OP
      68      32     1    -1.045            1.127           11.677             1.71  # OP
      69      33     2      1.18           -2.444           15.961             1.71  # P
      70      33     1    -1.045           -3.655            16.91             1.71  # OP
      71      33     1    -1.045           -1.122           16.749             1.71  # OP
      72      33     1    -1.045           -2.441           15.058            0.473  # OP
      73      33     1    -1.045           -2.441           15.058            2.947  # OP
      74      34     2      1.18           -2.871              9.7             1.71  # P
      75      34     1    -1.045           -1.444           10.274             1.71  # OP
      76      34     1    -1.045           -2.849            8.161             1.71  # OP
      77      34     1    -1.045           -3.654           10.149            2.947  # OP
      78      34     1    -1.045           -3.654           10.149            0.473  # OP
      79      35     2      1.18            -0.85           12.707            5.149  # P
      80      35     1    -1.045           -0.633            14.23            5.149  # OP
      81      35     1    -1.045            0.494           11.957            5.149  # OP
      82      35     1    -1.045            -1.63           12.254            6.386  # OP
      83      35     1    -1.045            -1.63           12.254            3.912  # OP
      84      36     2      1.18            2.938            9.946            5.149  # P
      85      36     1    -1.045            4.149            8.997            5.149  # OP
      86      36     1    -1.045            1.616            9.158            5.149  # OP
      87      36     1    -1.045            2.935           10.849            6.386  # OP
      88      36     1    -1.045            2.935           10.849            3.912  # OP
      89      37     3         2            1.379           19.047            5.149  # CAL
      90      38     3         2            4.959           18.395                0  # CAL
      91      39     3         2            2.604           21.061             1.71  # CAL
      92      40     3         2            4.959           18.395            3.419  # CAL
      93      41     3         2           -0.978           19.101             1.71  # CAL
      94      42     3         2           -0.885           23.183             1.71  # CAL
      95      43     3         2           -4.465           23.835            6.859  # CAL
      96      44     3         2            1.472           23.129            5.149  # CAL
      97      45     3         2           -4.465           23.835             3.44  # CAL
      98      46     3         2            -2.11           21.169            5.149  # CAL
      99      47     4      -1.4            0.247           21.115            3.848  # OR
     100      47     5       0.4            0.247           21.115            4.771  # HR
     101      48     4      -1.4            0.247           21.115            0.408  # OR
     102      48     5       0.4            0.247           21.115            1.331  # HR
     103      49     2      1.18           -1.347           24.368            5.149  # P
     104      49     1    -1.045           -1.369           25.908            5.149  # OP
     105      49     1    -1.045           -0.564            23.92            6.386  # OP
     106      49     1    -1.045           -0.564            23.92            3.912  # OP
     107      49     1    -1.045           -2.774           23.795            5.149  # OP
     108      50     2      1.18           -3.368           21.361             1.71  # P
     109      50     1    -1.045           -4.712           22.112             1.71  # OP
     110      50     1    -1.045           -2.588           21.815            2.947  # OP
     111      50     1    -1.045           -2.588           21.815            0.473  # OP
     112      50     1    -1.045           -3.585           19.838             1.71  # OP
     113      51     2      1.18            2.268           24.122             1.71  # P
     114      51     1    -1.045            1.057           25.071             1.71  # OP
     115      51     1    -1.045             3.59            24.91             1.71  # OP
     116      51     1    -1.045            2.271           23.219            0.473  # OP
     117      51     1    -1.045            2.271           23.219            2.947  # OP
     118      52     2      1.18            1.841           17.861             1.71  # P
     119      52     1    -1.045            3.268           18.435             1.71  # OP
     120      52     1    -1.045            1.863           16.322             1.71  # OP
     121      52     1    -1.045            1.058            18.31            2.947  # OP
     122      52     1    -1.045            1.058            18.31            0.473  # OP
     123      53     2      1.18            3.862           20.868            5.149  # P
     124      53     1    -1.045            4.079           22.391            5.149  # OP
     125      53     1    -1.045            5.206           20.118            5.149  # OP
     126      53     1    -1.045            3.082           20.415            6.386  # OP
     127      53     1    -1.045            3.082           20.415            3.912  # OP
     128      54     2      1.18           -1.774           18.107            5.149  # P
     129      54     1    -1.045           -0.563           17.158            5.149  # OP
     130      54     1    -1.045           -3.096           17.319            5.149  # OP
     131      54     1    -1.045           -1.777            19.01            6.386  # OP
     132      54     1    -1.045           -1.777            19.01            3.912  # OP
     133      55     3         2           -3.333           27.208            5.149  # CAL
     134      56     3         2            0.247           26.556                0  # CAL
     135      57     3         2           -2.108           29.222             1.71  # CAL
     136      58     3         2            0.247           26.556            3.419  # CAL
     137      59     3         2            3.734           27.262             1.71  # CAL
     138      60     3         2            3.827           31.344             1.71  # CAL
     139      61     3         2            0.247           31.996            6.859  # CAL
     140      62     3         2            -3.24            31.29            5.149  # CAL
     141      63     3         2            0.247           31.996             3.44  # CAL
     142      64     3         2            2.602            29.33            5.149  # CAL
     143      65     4      -1.4           -4.465           29.276            4.771  # OR
     144      65     5       0.4           -4.465           29.276            3.848  # HR
     145      66     4      -1.4           -4.465           29.276            1.331  # OR
     146      66     5       0.4           -4.465           29.276            0.408  # HR
     147      67     2      1.18            3.365           32.529            5.149  # P
     148      67     1    -1.045            3.343           34.069            5.149  # OP
     149      67     1    -1.045            4.148           32.081            6.386  # OP
     150      67     1    -1.045            4.148           32.081            3.912  # OP
     151      67     1    -1.045            1.938           31.956            5.149  # OP
     152      68     2      1.18            1.344           29.522             1.71  # P
     153      68     1    -1.045                0           30.273             1.71  # OP
     154      68     1    -1.045            2.124           29.976            2.947  # OP
     155      68     1    -1.045            2.124           29.976            0.473  # OP
     156      68     1    -1.045            1.127           27.999             1.71  # OP
     157      69     2      1.18           -2.444           32.283             1.71  # P
     158      69     1    -1.045           -3.655           33.232             1.71  # OP
     159      69     1    -1.045           -1.122           33.071             1.71  # OP
     160      69     1    -1.045           -2.441            31.38            0.473  # OP
     161      69     1    -1.045           -2.441            31.38            2.947  # OP
     162      70     2      1.18           -2.871           26.022             1.71  # P
     163      70     1    -1.045           -1.444           26.596             1.71  # OP
     164      70     1    -1.045           -2.849           24.483             1.71  # OP
     165      70     1    -1.045           -3.654           26.471            2.947  # OP
     166      70     1    -1.045           -3.654           26.471            0.473  # OP
     167      71     2      1.18            -0.85           29.029            5.149  # P
     168      71     1    -1.045           -0.633           30.552            5.149  # OP
     169      71     1    -1.045            0.494           28.279            5.149  # OP
     170      71     1    -1.045            -1.63           28.576            6.386  # OP
     171      71     1    -1.045            -1.63           28.576            3.912  # OP
     172      72     2      1.18            2.938           26.268            5.149  # P
     173      72     1    -1.045            4.149           25.319            5.149  # OP
     174      72     1    -1.045            1.616            25.48            5.149  # OP
     175      72     1    -1.045            2.935           27.171            6.386  # OP
     176      72     1    -1.045            2.935           27.171            3.912  # OP
     177      73     3         2            1.379           35.369            5.149  # CAL
     178      74     3         2            4.959           34.717                0  # CAL
     179      75     3         2            2.604           37.383             1.71  # CAL
     180      76     3         2            4.959           34.717            3.419  # CAL
     181      77     3         2           -0.978           35.423             1.71  # CAL
     182      78     3         2           -0.885           39.505             1.71  # CAL
     183      79     3         2           -4.465           40.157            6.859  # CAL
     184      80     3         2            1.472           39.451            5.149  # CAL
     185      81     3         2           -4.465           40.157             3.44  # CAL
     186      82     3         2            -2.11           37.491            5.149  # CAL
     187      83     4      -1.4            0.247           37.437            3.848  # OR
     188      83     5       0.4            0.247           37.437            4.771  # HR
     189      84     4      -1.4            0.247           37.437            0.408  # OR
     190      84     5       0.4            0.247           37.437            1.331  # HR
     191      85     2      1.18           -1.347            40.69            5.149  # P
     192      85     1    -1.045           -1.369            42.23            5.149  # OP
     193      85     1    -1.045           -0.564           40.242            6.386  # OP
     194      85     1    -1.045           -0.564           40.242            3.912  # OP
     195      85     1    -1.045           -2.774           40.117            5.149  # OP
     196      86     2      1.18           -3.368           37.683             1.71  # P
     197      86     1    -1.045           -4.712           38.434             1.71  # OP
     198      86     1    -1.045           -2.588           38.137            2.947  # OP
     199      86     1    -1.045           -2.588           38.137            0.473  # OP
     200      86     1    -1.045           -3.585            36.16             1.71  # OP
     201      87     2      1.18            2.268           40.444             1.71  # P
     202      87     1    -1.045            1.057           41.393             1.71  # OP
     203      87     1    -1.045             3.59           41.232             1.71  # OP
     204      87     1    -1.045            2.271           39.541            0.473  # OP
     205      87     1    -1.045            2.271           39.541            2.947  # OP
     206      88     2      1.18            1.841           34.183             1.71  # P
     207      88     1    -1.045            3.268           34.757             1.71  # OP
     208      88     1    -1.045            1.863           32.644             1.71  # OP
     209      88     1    -1.045            1.058           34.632            2.947  # OP
     210      88     1    -1.045            1.058           34.632            0.473  # OP
     211      89     2      1.18            3.862            37.19            5.149  # P
     212      89     1    -1.045            4.079           38.713            5.149  # OP
     213      89     1    -1.045            5.206            36.44            5.149  # OP
     214      89     1    -1.045            3.082           36.737            6.386  # OP
     215      89     1    -1.045            3.082           36.737            3.912  # OP
     216      90     2      1.18           -1.774           34.429            5.149  # P
     217      90     1    -1.045           -0.563            33.48            5.149  # OP
     218      90     1    -1.045           -3.096           33.641            5.149  # OP
     219      90     1    -1.045           -1.777           35.332            6.386  # OP
     220      90     1    -1.045           -1.777           35.332            3.912  # OP
     221      91     3         2           -3.333            43.53            5.149  # CAL
     222      92     3         2            0.247           42.878                0  # CAL
     223      93     3         2           -2.108           45.544             1.71  # CAL
     224      94     3         2            0.247           42.878            3.419  # CAL
     225      95     3         2            3.734           43.584             1.71  # CAL
     226      96     3         2            3.827           47.666             1.71  # CAL
     227      97     3         2            0.247           48.318            6.859  # CAL
     228      98     3         2            -3.24           47.612            5.149  # CAL
     229      99     3         2            0.247           48.318             3.44  # CAL
     230     100     3         2            2.602           45.652            5.149  # CAL
     231     101     4      -1.4           -4.465           45.598            4.771  # OR
     232     101     5       0.4           -4.465           45.598            3.848  # HR
     233     102     4      -1.4           -4.465           45.598            1.331  # OR
     234     102     5       0.4           -4.465           45.598            0.408  # HR
     235     103     2      1.18            3.365           48.851            5.149  # P
     236     103     1    -1.045            3.343           50.391            5.149  # OP
     237     103     1    -1.045            4.148           48.403            6.386  # OP
     238     103     1    -1.045            4.148           48.403            3.912  # OP
     239     103     1    -1.045            1.938           48.278            5.149  # OP
     240     104     2      1.18            1.344           45.844             1.71  # P
     241     104     1    -1.045                0           46.595             1.71  # OP
     242     104     1    -1.045            2.124           46.298            2.947  # OP
     243     104     1    -1.045            2.124           46.298            0.473  # OP
     244     104     1    -1.045            1.127           44.321             1.71  # OP
     245     105     2      1.18           -2.444           48.605             1.71  # P
     246     105     1    -1.045           -3.655           49.554             1.71  # OP
     247     105     1    -1.045           -1.122           49.393             1.71  # OP
     248     105     1    -1.045           -2.441           47.702            0.473  # OP
     249     105     1    -1.045           -2.441           47.702            2.947  # OP
     250     106     2      1.18           -2.871           42.344             1.71  # P
     251     106     1    -1.045           -1.444           42.918             1.71  # OP
     252     106     1    -1.045           -2.849           40.805             1.71  # OP
     253     106     1    -1.045           -3.654           42.793            2.947  # OP
     254     106     1    -1.045           -3.654           42.793            0.473  # OP
     255     107     2      1.18            -0.85           45.351            5.149  # P
     256     107     1    -1.045           -0.633           46.874            5.149  # OP
     257     107     1    -1.045            0.494           44.601            5.149  # OP
     258     107     1    -1.045            -1.63           44.898            6.386  # OP
     259     107     1    -1.045            -1.63           44.898            3.912  # OP
     260     108     2      1.18            2.938            42.59            5.149  # P
     261     108     1    -1.045            4.149           41.641            5.149  # OP
     262     108     1    -1.045            1.616           41.802            5.149  # OP
     263     108     1    -1.045            2.935           43.493            6.386  # OP
     264     108     1    -1.045            2.935           43.493            3.912  # OP
     265     109     3         2            1.379           51.691            5.149  # CAL
     266     110     3         2            4.959           51.039                0  # CAL
     267     111     3         2            2.604           53.705             1.71  # CAL
     268     112     3         2            4.959           51.039            3.419  # CAL
     269     113     3         2           -0.978           51.745             1.71  # CAL
     270     114     3         2           -0.885           55.827             1.71  # CAL
     271     115     3         2           -4.465           56.479            6.859  # CAL
     272     116     3         2            1.472           55.773            5.149  # CAL
     273     117     3         2           -4.465           56.479             3.44  # CAL
     274     118     3         2            -2.11           53.813            5.149  # CAL
     275     119     4      -1.4            0.247           53.759            3.848  # OR
     276     119     5       0.4            0.247           53.759            4.771  # HR
     277     120     4      -1.4            0.247           53.759            0.408  # OR
     278     120     5       0.4            0.247           53.759            1.331  # HR
     279     121     2      1.18           -1.347           57.012            5.149  # P
     280     121     1    -1.045           -1.369           58.552            5.149  # OP
     281     121     1    -1.045           -0.564           56.564            6.386  # OP
     282     121     1    -1.045           -0.564           56.564            3.912  # OP
     283     121     1    -1.045           -2.774           56.439            5.149  # OP
     284     122     2      1.18           -3.368           54.005             1.71  # P
     285     122     1    -1.045           -4.712           54.756             1.71  # OP
     286     122     1    -1.045           -2.588           54.459            2.947  # OP
     287     122     1    -1.045           -2.588           54.459            0.473  # OP
     288     122     1    -1.045           -3.585           52.482             1.71  # OP
     289     123     2      1.18            2.268           56.766             1.71  # P
     290     123     1    -1.045            1.057           57.715             1.71  # OP
     291     123     1    -1.045             3.59           57.554             1.71  # OP
     292     123     1    -1.045            2.271           55.863            0.473  # OP
     293     123     1    -1.045            2.271           55.863            2.947  # OP
     294     124     2      1.18            1.841           50.505             1.71  # P
     295     124     1    -1.045            3.268           51.079             1.71  # OP
     296     124     1    -1.045            1.863           48.966             1.71  # OP
     297     124     1    -1.045            1.058           50.954            2.947  # OP
     298     124     1    -1.045            1.058           50.954            0.473  # OP
     299     125     2      1.18            3.862           53.512            5.149  # P
     300     125     1    -1.045            4.079           55.035            5.149  # OP
     301     125     1    -1.045            5.206           52.762            5.149  # OP
     302     125     1    -1.045            3.082           53.059            6.386  # OP
     303     125     1    -1.045            3.082           53.059            3.912  # OP
     304     126     2      1.18           -1.774           50.751            5.149  # P
     305     126     1    -1.045           -0.563           49.802            5.149  # OP
     306     126     1    -1.045           -3.096           49.963            5.149  # OP
     307     126     1    -1.045           -1.777           51.654            6.386  # OP
     308     126     1    -1.045           -1.777           51.654            3.912  # OP
     309     127     3         2           -3.333           59.852            5.149  # CAL
     310     128     3         2            0.247             59.2                0  # CAL
     311     129     3         2           -2.108           61.866             1.71  # CAL
     312     130     3         2            0.247             59.2            3.419  # CAL
     313     131     3         2            3.734           59.906             1.71  # CAL
     314     132     3         2            3.827           63.988             1.71  # CAL
     315     133     3         2            0.247            64.64            6.859  # CAL
     316     134     3         2            -3.24           63.934            5.149  # CAL
     317     135     3         2            0.247            64.64             3.44  # CAL
     318     136     3         2            2.602           61.974            5.149  # CAL
     319     137     4      -1.4           -4.465            61.92            4.771  # OR
     320     137     5       0.4           -4.465            61.92            3.848  # HR
     321     138     4      -1.4           -4.465            61.92            1.331  # OR