LAMMPS (12 Dec 2018)
OMP_NUM_THREADS environment is not set. Defaulting to 1 thread. (../comm.cpp:87)
  using 1 OpenMP thread(s) per MPI task
# Created by charmm2lammps v1.9.2 on Wed Jul  1 20:30:05 EDT 2020
# Command: charmm2lammps.pl hap HAP_19301 -charmm

units           real
dimension	3
processors	*	*	*
boundary	p	p	p
neigh_modify    delay 2 every 1

atom_style      full
bond_style      harmonic
angle_style     charmm
pair_style      lj/charmm/coul/long 8 12
pair_modify     mix arithmetic
kspace_style    pppm 1e-6

read_data       HAP_1930.data
  orthogonal box = (-4.712 -15 0) to (5.206 163.323 206.35)
  1 by 8 by 10 MPI processor grid
  reading atoms ...
  23760 atoms
  scanning bonds ...
  4 = max bonds/atom
  scanning angles ...
  6 = max angles/atom
  reading bonds ...
  14040 bonds
  reading angles ...
  19440 angles
  4 = max # of 1-2 neighbors
  3 = max # of 1-3 neighbors
  3 = max # of 1-4 neighbors
  4 = max # of special neighbors

special_bonds   charmm
timestep        1.0

minimize 0.0 0.0 500 2000
WARNING: Using 'neigh_modify every 1 delay 0 check yes' setting during minimization (../min.cpp:168)
PPPM initialization ...
  using 12-bit tables for long-range coulomb (../kspace.cpp:321)
  G vector (1/distance) = 0.296571
  grid = 27 216 240
  stencil order = 5
  estimated absolute RMS force accuracy = 0.000395569
  estimated relative force accuracy = 1.19125e-06
  using single precision FFTs
  3d grid and FFT values/proc = 40052 17496
Neighbor list info ...
  update every 1 steps, delay 0 steps, check yes
  max neighbors/atom: 2000, page size: 100000
  master list distance cutoff = 14
  ghost atom cutoff = 14
  binsize = 7, bins = 2 26 30
  1 neighbor lists, perpetual/occasional/extra = 1 0 0
  (1) pair lj/charmm/coul/long, perpetual
      attributes: half, newton on
      pair build: half/bin/newton
      stencil: half/bin/3d/newton
      bin: standard
Per MPI rank memory allocation (min/avg/max) = 11.72 | 12.48 | 12.76 Mbytes
Step Temp E_pair E_mol TotEng Press 
       0            0   -4351849.6    2360315.6     -1991534   -30123.884 
      19            0   -4390147.7    2350870.8   -2039276.9   -55488.732 
Loop time of 1.53815 on 80 procs for 19 steps with 23760 atoms

99.8% CPU use with 80 MPI tasks x 1 OpenMP threads

Minimization stats:
  Stopping criterion = linesearch alpha is zero
  Energy initial, next-to-last, final = 
        -1991534.02644     -2051300.51518     -2039276.88785
  Force two-norm initial, final = 5815.96 2350.97
  Force max component initial, final = 116.524 96.3047
  Final line search alpha, max atom move = 3.32057e-15 3.19787e-13
  Iterations, force evaluations = 19 104

MPI task timing breakdown:
Section |  min time  |  avg time  |  max time  |%varavg| %total
---------------------------------------------------------------
Pair    | 0.076546   | 0.4328     | 0.6047     |  28.7 | 28.14
Bond    | 0.00086427 | 0.003051   | 0.0043857  |   2.0 |  0.20
Kspace  | 0.86487    | 1.0355     | 1.4011     |  19.1 | 67.32
Neigh   | 0.0062072  | 0.0064534  | 0.006814   |   0.3 |  0.42
Comm    | 0.017325   | 0.034874   | 0.057529   |   5.3 |  2.27
Output  | 0          | 0          | 0          |   0.0 |  0.00
Modify  | 0          | 0          | 0          |   0.0 |  0.00
Other   |            | 0.02549    |            |       |  1.66

Nlocal:    297 ave 374 max 101 min
Histogram: 20 0 0 0 0 0 0 0 0 60
Nghost:    5704.9 ave 7043 max 2947 min
Histogram: 20 0 0 0 0 0 0 20 0 40
Neighs:    129652 ave 168364 max 24447 min
Histogram: 20 0 0 0 0 0 0 0 0 60

Total # of neighbors = 10372199
Ave neighs/atom = 436.54
Ave special neighs/atom = 2.81818
Neighbor list builds = 1
Dangerous builds = 0

#------------------------------------
# Initial cell length for strain calculations
variable tmpz equal "lz"
variable Lz0 equal ${tmpz}
variable Lz0 equal 206.35
print "Initial Length, Lz0: ${Lz0}"
Initial Length, Lz0: 206.35

variable hin equal bound(all,ymax)
variable fro equal bound(all,ymin)
variable tLy0 equal "v_hin-v_fro"
variable Ly0 equal ${tLy0}
variable Ly0 equal 147.683355302819

variable wallh equal "v_hin-4"
variable wallf equal "v_fro+4"
region hind block INF INF ${wallh} INF INF INF
region hind block INF INF 144.007547032267 INF INF INF
region fron block INF INF INF ${wallf} INF INF
region fron block INF INF INF 4.32419172944809 INF INF
group hind region hind
540 atoms in group hind
group fron region fron
536 atoms in group fron
group surface union hind fron
1076 atoms in group surface

compute 	peatom all pe/atom
compute 	keatom all ke/atom
compute		statom all stress/atom NULL
dump            1 all custom 500 dump.HAP1930 id type x y z c_peatom c_keatom c_statom[1] c_statom[2] c_statom[3] c_statom[4] c_statom[5] c_statom[6]

# 1 bar = 1/10000 GPa
variable strain equal "(lz - v_Lz0)/v_Lz0"
variable sx equal "-pxx/10000"
variable sy equal "-pyy/10000"
variable sz equal "-pzz/10000"

thermo          500
thermo_style    custom step v_strain v_sx v_sy v_sz lx ly lz pe ke etotal press temp

#-----------------Equilibration--------------
reset_timestep  0
velocity        all create 300.0 1234567 dist uniform
velocity	surface set 0 0 0

fix             1 all npt temp 300 300 10 iso 1 1 1000
run             5000
PPPM initialization ...
  using 12-bit tables for long-range coulomb (../kspace.cpp:321)
  G vector (1/distance) = 0.296571
  grid = 27 216 240
  stencil order = 5
  estimated absolute RMS force accuracy = 0.000395569
  estimated relative force accuracy = 1.19125e-06
  using single precision FFTs
  3d grid and FFT values/proc = 40052 17496
Per MPI rank memory allocation (min/avg/max) = 16.43 | 17.18 | 17.46 Mbytes
Step v_strain v_sx v_sy v_sz Lx Ly Lz PotEng KinEng TotEng Press Temp 
       0            0    9.8594726    4.8941592    1.1315725        9.918      178.323       206.35   -2039276.9    20262.988   -2019013.9   -52950.681    286.11526 
     500 -0.017220028    7.1092322   0.71410164   -7.8550998    9.7472118    175.25227    202.79665   -2044693.2     22113.22   -2022579.9    105.88649    312.24071 
    1000 -0.015445774    7.6578531  -0.19890234    -7.675556    9.7648088    175.56866    203.16276   -2044843.7      21272.3   -2023571.4    722.01755    300.36684 
    1500 -0.013368639    7.4375317  -0.58910565   -6.8145851    9.7854098    175.93906    203.59138   -2044729.5    21235.822   -2023493.7   -112.80291    299.85178 
    2000 -0.013004568    7.8555469   -1.0216238   -7.0028134    9.7890207    176.00399    203.66651   -2044490.6     21117.77   -2023372.8    562.96799    298.18486 
    2500 -0.013195795    7.6441103   -0.6916446    -6.985625    9.7871241    175.96989    203.62705   -2044659.7    21088.112   -2023571.6    110.53099    297.76609 
    3000 -0.014878244    7.5271027  -0.11963191   -7.4770428    9.7704376    175.66987    203.27987   -2044950.1    21136.245   -2023813.9     231.9065    298.44573 
    3500 -0.016218138    7.4770717   0.38533917   -7.4823957    9.7571485    175.43093    203.00339   -2044697.2     21260.68   -2023436.5   -1266.7172    300.20277 
    4000 -0.017761188    7.1330739   0.65037195   -8.0034854    9.7418445    175.15577    202.68498   -2044489.6    21518.044   -2022971.6    733.46497    303.83676 
    4500  -0.01767506    7.2650624   0.76146742   -7.8584097    9.7426988    175.17113    202.70275     -2044557    21223.975     -2023333   -560.40048    299.68449 
    5000 -0.016934977    7.3795121   0.43333948   -7.7640826    9.7500389     175.3031    202.85547   -2044914.1    21474.451   -2023439.6   -162.56311    303.22124 
Loop time of 84.4258 on 80 procs for 5000 steps with 23760 atoms

Performance: 5.117 ns/day, 4.690 hours/ns, 59.224 timesteps/s
99.7% CPU use with 80 MPI tasks x 1 OpenMP threads

MPI task timing breakdown:
Section |  min time  |  avg time  |  max time  |%varavg| %total
---------------------------------------------------------------
Pair    | 2.7168     | 15.843     | 21.093     | 180.3 | 18.77
Bond    | 0.13083    | 0.24644    | 0.29453    |  12.0 |  0.29
Kspace  | 45.327     | 50.808     | 64.495     | 106.0 | 60.18
Neigh   | 0.90466    | 0.97266    | 1.0225     |   3.0 |  1.15
Comm    | 0.76809    | 2.1952     | 3.858      |  49.2 |  2.60
Output  | 0.37691    | 0.37696    | 0.37702    |   0.0 |  0.45
Modify  | 12.733     | 13.386     | 14.002     |   8.9 | 15.86
Other   |            | 0.5974     |            |       |  0.71

Nlocal:    297 ave 371 max 93 min
Histogram: 20 0 0 0 0 0 0 0 0 60
Nghost:    5896.73 ave 7305 max 2962 min
Histogram: 20 0 0 0 0 0 0 20 0 40
Neighs:    137336 ave 179964 max 23632 min
Histogram: 20 0 0 0 0 0 0 0 0 60

Total # of neighbors = 10986894
Ave neighs/atom = 462.411
Ave special neighs/atom = 2.81818
Neighbor list builds = 192
Dangerous builds = 0
unfix 		1

fix             1 all npt temp 300 300 10 x 1 1000 1000 y 1 1 1000 z 1 1 1000
run             5000
PPPM initialization ...
  using 12-bit tables for long-range coulomb (../kspace.cpp:321)
  G vector (1/distance) = 0.297361
  grid = 27 216 240
  stencil order = 5
  estimated absolute RMS force accuracy = 0.000378619
  estimated relative force accuracy = 1.1402e-06
  using single precision FFTs
  3d grid and FFT values/proc = 40052 17496
Per MPI rank memory allocation (min/avg/max) = 16.43 | 17.19 | 17.47 Mbytes
Step v_strain v_sx v_sy v_sz Lx Ly Lz PotEng KinEng TotEng Press Temp 
    5000 -0.016934977     7.379507   0.43334309   -7.7640864    9.7500389     175.3031    202.85547     -2044914    21474.451   -2023439.6   -162.54544    303.22124 
    5500  0.024487564 -0.061619082  -0.16962189  0.076409548    9.2354993    176.18497    211.40301   -2064859.2    21326.897   -2043532.3    516.10473    301.13775 
    6000  0.024327816 -0.048868702   0.08686359 -0.063582156    9.2352768    177.03949    211.37004   -2064636.4    21104.917   -2043531.5    85.290897    298.00338 
    6500   0.02462472  0.012312731  -0.10907482 -0.011437205    9.2384278     177.5267    211.43131   -2064668.6    21242.561     -2043426    360.66432    299.94693 
    7000  0.024447161  0.024436224  0.025561962 -0.069888076    9.2376215     178.3234    211.39467   -2064550.8    21009.022   -2043541.8    66.299634    296.64934 
    7500  0.024365517  0.077133093  -0.18228153 -0.048493236    9.2368089    178.80627    211.37782   -2064947.5    21279.659   -2043667.8    512.13892    300.47075 
    8000  0.024371875   -0.1151779 -0.015413048 -0.015178161    9.2338894    179.55942    211.37914   -2064961.8    21098.884     -2043863    485.89702     297.9182 
    8500  0.024474746 -0.046148324 -0.071872092 -0.024057167     9.231936    180.09157    211.40036   -2064836.1    21304.151   -2043531.9    473.59194    300.81659 
    9000  0.024531424 -0.060725118  0.083761333  0.066802725    9.2335601    180.81423    211.41206   -2064806.8    21237.745   -2043569.1   -299.46314    299.87892 
    9500  0.024556675  -0.09598108 -0.0032376944 -0.026875995    9.2303591    181.32669    211.41727   -2064827.8    21216.171   -2043611.6     420.3159    299.57429 
   10000  0.024381421 -0.052536712 -0.080551966 -0.032390516    9.2314055    182.00102    211.38111   -2064619.8    21203.942   -2043415.9    551.59731    299.40162 
Loop time of 81.8575 on 80 procs for 5000 steps with 23760 atoms

Performance: 5.277 ns/day, 4.548 hours/ns, 61.082 timesteps/s
99.7% CPU use with 80 MPI tasks x 1 OpenMP threads

MPI task timing breakdown:
Section |  min time  |  avg time  |  max time  |%varavg| %total
---------------------------------------------------------------
Pair    | 2.3285     | 15.777     | 20.74      | 186.5 | 19.27
Bond    | 0.098416   | 0.2461     | 0.30497    |  13.7 |  0.30
Kspace  | 43.086     | 48.673     | 62.668     | 111.5 | 59.46
Neigh   | 0.97241    | 1.0443     | 1.1032     |   3.2 |  1.28
Comm    | 0.711      | 1.9913     | 3.539      |  48.5 |  2.43
Output  | 0.37517    | 0.37523    | 0.37527    |   0.0 |  0.46
Modify  | 12.593     | 13.22      | 13.765     |   8.4 | 16.15
Other   |            | 0.5294     |            |       |  0.65

Nlocal:    297 ave 388 max 52 min
Histogram: 20 0 0 0 0 0 0 0 0 60
Nghost:    5883.95 ave 7587 max 2669 min
Histogram: 20 0 0 0 0 0 20 0 0 40
Neighs:    138830 ave 185585 max 11714 min
Histogram: 20 0 0 0 0 0 0 0 0 60

Total # of neighbors = 11106390
Ave neighs/atom = 467.441
Ave special neighs/atom = 2.81818
Neighbor list builds = 206
Dangerous builds = 0
unfix 		1

fix             1 all npt temp 300 300 10 x 1000 1 1000 y 1 1 1000 z 1 1 1000
run             5000
PPPM initialization ...
  using 12-bit tables for long-range coulomb (../kspace.cpp:321)
  G vector (1/distance) = 0.29672
  grid = 27 216 240
  stencil order = 5
  estimated absolute RMS force accuracy = 0.000396143
  estimated relative force accuracy = 1.19297e-06
  using single precision FFTs
  3d grid and FFT values/proc = 40052 17496
Per MPI rank memory allocation (min/avg/max) = 16.43 | 17.19 | 17.48 Mbytes
Step v_strain v_sx v_sy v_sz Lx Ly Lz PotEng KinEng TotEng Press Temp 
   10000  0.024381421  -0.05253837 -0.080554628 -0.032389091    9.2314055    182.00102    211.38111   -2064619.8    21203.942   -2043415.9    551.60696    299.40162 
   10500  0.024337378 -0.090585145   0.03353177 -0.087389154    9.2306033    182.52735    211.37202   -2064956.5    21288.459     -2043668     481.4751    300.59501 
   11000  0.024464329  -0.10182496 -0.029412225  0.017621503    9.2292612    183.19103    211.39821   -2064797.2    21257.244     -2043540    378.71893    300.15424 
   11500  0.024717605  -0.11196433 -0.016012003 -0.032420178    9.2308998     183.5905    211.45048   -2065055.6    21315.143   -2043740.5    534.65504    300.97179 
   12000  0.024816783  -0.10503441  0.017602533   0.12254037    9.2308666    184.29152    211.47094   -2064877.7    21344.292   -2043533.4   -117.02831    301.38337 
   12500  0.024838285  0.019503677  0.073505853  0.060055041    9.2314086    184.87066    211.47538   -2064791.8    21113.494   -2043678.3   -510.21523    298.12448 
   13000  0.024641614 -0.032524042 -0.034956221   0.15461348    9.2351169    185.45364     211.4348   -2064906.3    21321.565   -2043584.7   -290.44407    301.06247 
   13500  0.024493335  0.012133374 0.0080665285  0.030626707    9.2332031    186.00409     211.4042   -2064848.6     21181.37   -2043667.2   -169.42203    299.08291 
   14000  0.024489432  0.014232946 -0.091866431  -0.03405232    9.2383197    186.54431    211.40339   -2064719.7    21112.593   -2043607.1    372.28601    298.11176 
   14500    0.0240393  0.057318416   0.07709784  -0.10426579    9.2333132    187.18185    211.31051   -2064825.3    21310.098   -2043515.2   -100.50154    300.90056 
   15000  0.024155586 -0.077599167 -0.00023065306 -0.035122041       9.2322      187.855    211.33451   -2064888.3     21276.73   -2043611.6     376.5062    300.42939 
Loop time of 88.7728 on 80 procs for 5000 steps with 23760 atoms

Performance: 4.866 ns/day, 4.932 hours/ns, 56.324 timesteps/s
99.7% CPU use with 80 MPI tasks x 1 OpenMP threads

MPI task timing breakdown:
Section |  min time  |  avg time  |  max time  |%varavg| %total
---------------------------------------------------------------
Pair    | 1.1702     | 15.642     | 21.587     | 207.8 | 17.62
Bond    | 0.057519   | 0.24045    | 0.31171    |  18.3 |  0.27
Kspace  | 48.242     | 55.089     | 70.332     | 117.4 | 62.06
Neigh   | 0.9459     | 1.0223     | 1.0909     |   3.6 |  1.15
Comm    | 0.62434    | 2.3101     | 4.184      |  56.0 |  2.60
Output  | 0.39302    | 0.39304    | 0.39307    |   0.0 |  0.44
Modify  | 12.752     | 13.484     | 14.12      |  10.0 | 15.19
Other   |            | 0.5921     |            |       |  0.67

Nlocal:    297 ave 392 max 17 min
Histogram: 20 0 0 0 0 0 0 0 0 60
Nghost:    5804.51 ave 7699 max 2371 min
Histogram: 20 0 0 0 0 0 20 0 0 40
Neighs:    138870 ave 192457 max 4140 min
Histogram: 20 0 0 0 0 0 0 0 10 50

Total # of neighbors = 11109594
Ave neighs/atom = 467.576
Ave special neighs/atom = 2.81818
Neighbor list builds = 190
Dangerous builds = 0
unfix 		1

fix             1 all npt temp 300 300 10 x 1 1 1000 y 1 1 1000 z 1 1 1000
run             5000
PPPM initialization ...
  using 12-bit tables for long-range coulomb (../kspace.cpp:321)
  G vector (1/distance) = 0.296114
  grid = 27 216 240
  stencil order = 5
  estimated absolute RMS force accuracy = 0.000411147
  estimated relative force accuracy = 1.23816e-06
  using single precision FFTs
  3d grid and FFT values/proc = 40052 17496
Per MPI rank memory allocation (min/avg/max) = 16.43 | 17.19 | 17.48 Mbytes
Step v_strain v_sx v_sy v_sz Lx Ly Lz PotEng KinEng TotEng Press Temp 
   15000  0.024155586 -0.077601031 -0.00023312305 -0.035120753       9.2322      187.855    211.33451   -2064888.3     21276.73   -2043611.6    376.51636    300.42939 
   15500  0.024337485  0.067737659 -0.014589346  -0.08327798    9.2384566    188.19938    211.37204   -2064996.6    21124.017   -2043872.6    100.43222    298.27308 
   16000  0.024564848  -0.11125963  -0.02793585  0.023386899    9.2306671    188.97318    211.41896   -2064822.1    21437.064   -2043385.1    386.02859    302.69332 
   16500   0.02446033  0.083858353 0.0047488692  0.020306212    9.2373669    189.40902    211.39739   -2065061.4    21448.012   -2043613.4   -363.04478    302.84791 
   17000  0.024351465  -0.10834765 -0.043291182 -0.0005355934    9.2303062    190.09099    211.37492   -2064817.7    21051.417   -2043766.3    507.24809    297.24795 
   17500  0.024538241   0.10813965 -0.049898662 0.0090696449     9.238464    190.51707    211.41347   -2064606.4    21257.488   -2043348.9   -224.36878    300.15769 
   18000  0.024444181 0.0040429058  0.025079826  -0.06258068    9.2373401    191.14932    211.39406   -2064887.8    21264.426   -2043623.4    111.52649    300.25566 
   18500  0.024333321   0.03047815  0.041289068  0.010592338    9.2332511    191.77196    211.37118   -2064889.2     21208.72   -2043680.4   -274.53185    299.46909 
   19000  0.024011795  -0.06680638  0.023772208  -0.14425503    9.2330342    192.32349    211.30483   -2064892.9    21169.414   -2043723.5    624.29732    298.91409 
   19500  0.024150051  -0.12113385  0.026935036 -0.068493912    9.2305443    192.91544    211.33336   -2064749.9    21270.592   -2043479.3    542.30908    300.34272 
   20000  0.024546793  0.076511237 -0.021756507  0.053967152    9.2367534    193.36558    211.41523   -2064814.7    21195.065   -2043619.7   -362.40627    299.27628 
Loop time of 81.3285 on 80 procs for 5000 steps with 23760 atoms

Performance: 5.312 ns/day, 4.518 hours/ns, 61.479 timesteps/s
99.8% CPU use with 80 MPI tasks x 1 OpenMP threads

MPI task timing breakdown:
Section |  min time  |  avg time  |  max time  |%varavg| %total
---------------------------------------------------------------
Pair    | 0.22321    | 15.57      | 22.007     | 225.0 | 19.14
Bond    | 0.010074   | 0.22953    | 0.31922    |  25.6 |  0.28
Kspace  | 41.381     | 48.606     | 64.906     | 133.8 | 59.77
Neigh   | 0.91858    | 0.97675    | 1.0344     |   2.9 |  1.20
Comm    | 0.55832    | 1.8963     | 3.3058     |  48.8 |  2.33
Output  | 0.32813    | 0.32816    | 0.32821    |   0.0 |  0.40
Modify  | 12.641     | 13.206     | 13.73      |   8.2 | 16.24
Other   |            | 0.5149     |            |       |  0.63

Nlocal:    297 ave 403 max 0 min
Histogram: 20 0 0 0 0 0 0 0 0 60
Nghost:    5699.11 ave 7739 max 2048 min
Histogram: 20 0 0 0 0 20 0 0 0 40
Neighs:    138796 ave 196176 max 0 min
Histogram: 20 0 0 0 0 0 0 0 18 42

Total # of neighbors = 11103709
Ave neighs/atom = 467.328
Ave special neighs/atom = 2.81818
Neighbor list builds = 184
Dangerous builds = 0
unfix 		1

group Notch id 10297 10306 10304 12675 12678 12677 11090 10347 10303 11178 11134 12718 12762 11931 11887 12674 11093 11094 11182 11091 11181 11179 11138 11137 11135 11934 11932 11925 11978 11888 11969 11890 11976 11881 11092 11097 11180 11268 11185 11136 11141 11224 11229 12021 11933 12016 11928 11977 12060 11972 11889 11884 11089 11184 11272 11177 11265 11098 11096 11274 11186 11133 11140 11228 11309 11221 11142 11230 12015 11927 11929 12018 11930 12105 12017 11971 12059 11973 12061 11883 12062 11974 11886 11885 11271 11882 11183 11095 11139 11227 11315 11970 12058 12146 11926 12102 12014 10331 10332 10333 10335 10311 10314 10315 10334 11108 11109 11110 11111 11112 11116 11117 11118 11119 11120 11121 11122 11123 11124 11125 11126 11127 11128 11129 11130 11131 11132 10312 10313 11103 11104 11105 11106 11107 11113 11114 11115 11152 11153 11154 11155 11156 11162 11163 11164 11165 11166 11167 11168 11169 11170 11171 11172 11173 11174 11175 11176 11147 11148 11149 11150 11151 11157 11158 11159 11160 11161 11196 11198 11199 11200 11206 11207 11208 11209 11210 11211 11213 11214 11215 11216 11217 11218 11219 11220 11197 11191 11192 11193 11194 11195 11201 11202 11203 11204 11205 11212 11250 11251 11252 11253 11254 11255 11257 11258 11259 11260 11261 11262 11263 11264 11900 11901 11902 11903 11904 11908 11909 11910 11911 11912 11913 11914 11915 11916 11917 11918 11919 11920 11921 11922 11923 11924 12695 12700 12706 12692 12693 12702 12703 12696 11895 11896 11897 11898 11899 11905 11906 11907 11944 11945 11946 11947 11948 11954 11955 11956 11957 11958 11959 11960 11961 11962 11963 11964 11965 11966 11967 11968 12750 12697 12698 12746 12747 12748 12699 11939 11940 11941 11942 11943 11949 11950 11951 11952 11953 11988 11990 11991 11992 11998 11999 12000 12001 12002 12003 12005 12006 12007 12008 12009 12010 12011 12012 11989 11983 11984 11985 11986 11987 11993 11994 11995 11996 11997 12004 12032 12036 12042 12043 12044 12045 12046 12052 12053 12054 12055 12056 12694 12701 12704 12705 12749 11235 11236 11237 11238 11239 11256 11301 11302 11303 11304 11305 11306 11307 11308 11279 11280 11281 11282 11283 11299 11300 11348 11349 11350 11351 11352 12033 12034 12035 12037 12038 12039 12040 12041 12080 12086 12087 12088 12089 12090 12076 12077 12078 12079 12081 12082 12083 12084 12085 12130 12131 12132 12133 12134 10307 10308 11099 11100 11101 11102 11143 11144 11145 11146 11187 11188 11189 11190 11231 11232 11891 11892 11893 11894 11935 11936 11937 11938 12729 12730 11979 11980 11981 11982 12023 12024 12025 12026 11275 11276 12069 12070 12113 12114
427 atoms in group Notch
delete_atoms group Notch bond yes mol yes
WARNING: Ignoring 'compress yes' for molecular system (../delete_atoms.cpp:120)
Deleted 427 atoms, new total = 23333
Deleted 252 bonds, new total = 13788
Deleted 348 angles, new total = 19092

write_restart   restart.HAP1930eq0
PPPM initialization ...
  using 12-bit tables for long-range coulomb (../kspace.cpp:321)
  G vector (1/distance) = 0.296334
  grid = 27 225 240
  stencil order = 5
  estimated absolute RMS force accuracy = 0.000392723
  estimated relative force accuracy = 1.18267e-06
  using single precision FFTs
  3d grid and FFT values/proc = 42408 18792
write_data      dat.HAP1930eq0
PPPM initialization ...
  using 12-bit tables for long-range coulomb (../kspace.cpp:321)
  G vector (1/distance) = 0.296334
  grid = 27 225 240
  stencil order = 5
  estimated absolute RMS force accuracy = 0.000392723
  estimated relative force accuracy = 1.18267e-06
  using single precision FFTs
  3d grid and FFT values/proc = 42408 18792


#------------------------Deformation---------------
reset_timestep 	0
velocity 	surface set 0 0 0
fix		1 fron setforce NULL 0 NULL
fix 		2 all nvt temp 300 300 10

#Break 1
fix 		3 all deform 1 z erate 0.000005 units box remap x #1 m/s
restart 	8000 restart.HAPtenz
run             40000 #
PPPM initialization ...
  using 12-bit tables for long-range coulomb (../kspace.cpp:321)
  G vector (1/distance) = 0.296334
  grid = 27 225 240
  stencil order = 5
  estimated absolute RMS force accuracy = 0.000392723
  estimated relative force accuracy = 1.18267e-06
  using single precision FFTs
  3d grid and FFT values/proc = 42408 18792
Per MPI rank memory allocation (min/avg/max) = 16.54 | 17.35 | 18.02 Mbytes
Step v_strain v_sx v_sy v_sz Lx Ly Lz PotEng KinEng TotEng Press Temp 
       0  0.024546793  0.052263815  0.023192928   0.10259481    9.2367534    193.36558    211.41523   -2020932.7     19872.73     -2001060   -593.50519    285.74014 
     500   0.02710816   0.13297903 -0.012255857   0.62867899    9.2367534    193.36558    211.94377   -2024227.3    20895.318     -2003332   -2498.0072    300.44343 
    1000  0.029669527   0.34074226  0.023926424    1.1533043    9.2367534    193.36558    212.47231   -2024627.3    21101.046   -2003526.2     -5059.91     303.4015 
    1500  0.032230894   0.37482413   0.23920183    1.6999693    9.2367534    193.36558    213.00084   -2024078.8    20808.088   -2003270.7   -7713.3177     299.1892 
    2000  0.034792261   0.43424275 -0.052384778    1.9819833    9.2367534    193.36558    213.52938   -2023826.3    20853.566   -2002972.8    -7879.471    299.84311 
    2500  0.037353628   0.42628852 -0.062337258    2.4132218    9.2367534    193.36558    214.05792   -2023328.8     20642.72   -2002686.1   -9257.2435    296.81144 
    3000  0.039914995   0.47313408 -0.013773262    2.7414845    9.2367534    193.36558    214.58646   -2022896.1    20851.129   -2002044.9   -10669.484    299.80806 
    3500  0.042476362    0.5946752  0.086850829    3.2388178    9.2367534    193.36558      215.115     -2022548    20787.104   -2001760.9   -13067.813    298.88748 
    4000  0.045037728   0.66216155 0.0090636606    3.6399957    9.2367534    193.36558    215.64354   -2021801.9    20611.033   -2001190.8   -14370.736    296.35584 
    4500  0.047599095   0.62250535 -0.085015362    3.9522829    9.2367534    193.36558    216.17207   -2021430.5    20960.433   -2000470.1    -14965.91    301.37969 
    5000  0.050160462   0.73155732 -0.036786094    4.2673328    9.2367534    193.36558    216.70061   -2020754.3    20824.074   -1999930.2   -16540.347    299.41904 
    5500  0.052721829   0.81407602  -0.03300896    4.6933066    9.2367534    193.36558    217.22915   -2020086.3    20829.641   -1999256.7   -18247.912     299.4991 
    6000  0.055283196   0.84444379  0.039013176    5.0013966    9.2367534    193.36558    217.75769   -2019389.5    21011.917   -1998377.6   -19616.179    302.11995 
    6500  0.057844563    0.9372816 -0.00038710115    5.3854267    9.2367534    193.36558    218.28623     -2018646    20972.765   -1997673.2   -21074.404      301.557 
    7000   0.06040593    1.0600787   0.14003747    5.6636468    9.2367534    193.36558    218.81476     -2017748    20777.651   -1996970.4    -22879.21    298.75155 
    7500  0.062967297    1.0412521  -0.06814576    5.7380504    9.2367534    193.36558     219.3433   -2016901.8    20857.155   -1996044.6   -22370.523    299.89471 
    8000  0.065528664   0.98886605 -0.067882876      5.89721    9.2367534    193.36558    219.87184   -2016153.4     20803.13   -1995350.3   -22727.311    299.11791 
    8500  0.068090031   0.98791682   -0.1643695    5.8665957    9.2367534    193.36558    220.40038   -2015110.3    20994.698   -1994115.6   -22300.477    301.87237 
    9000  0.070651398    1.0706604 -0.069412885    6.0540706    9.2367534    193.36558    220.92892   -2014369.8    20966.818   -1993402.9   -23517.727     301.4715 
    9500  0.073212765    1.0883381 -0.0097652745    6.0211786    9.2367534    193.36558    221.45745   -2014059.7     21091.76   -1992967.9   -23665.838    303.26797 
   10000  0.075774132   0.99904872  -0.14892956    5.8806243    9.2367534    193.36558    221.98599   -2013237.7    20824.353   -1992413.3   -22435.811    299.42307 
   10500  0.078335499    1.0656762 0.0046228209    5.8392645    9.2367534    193.36558    222.51453   -2012822.9    20776.875     -1992046   -23031.878    298.74039 
   11000  0.080896866   0.91653846 -0.073323676    5.1795153    9.2367534    193.36558    223.04307   -2012798.3    21104.881   -1991693.4   -20075.767    303.45664 
   11500  0.083458233   0.72800681   -0.3173694    4.1276634    9.2367534    193.36558    223.57161   -2014278.6    20841.493   -1993437.1   -15127.669    299.66951 
   12000    0.0860196   0.50294394  -0.39874782    2.9675172    9.2367534    193.36558    224.10014   -2016377.2    20742.132     -1995635   -10239.044    298.24085 
   12500  0.088580967   0.26519138  -0.41622458    1.1759279    9.2367534    193.36558    224.62868   -2018706.5    20745.463     -1997961   -3416.3156    298.28874 
   13000  0.091142334 -0.012153866  -0.31053715   -0.2799833    9.2367534    193.36558    225.15722   -2019834.1    20748.942   -1999085.2    2008.9144    298.33876 
   13500  0.093703701  -0.21339078 -0.043648111   -1.4716894    9.2367534    193.36558    225.68576   -2019464.6    20787.846   -1998676.7    5762.4277    298.89814 
   14000  0.096265068 -0.097398001   0.37276016   -1.4303861    9.2367534    193.36558     226.2143   -2019052.3    20773.226   -1998279.1    3850.0796    298.68793 
   14500  0.098826435   0.32815781   0.95633219  -0.29806045    9.2367534    193.36558    226.74283   -2018747.9    20954.413   -1997793.5   -3288.0985    301.29313 
   15000    0.1013878    0.5829065    1.0564648   0.76732791    9.2367534    193.36558    227.27137   -2017986.8    20862.494   -1997124.3   -8022.3309    299.97147 
   15500   0.10394917   0.65107503    1.1019304    1.6761951    9.2367534    193.36558    227.79991   -2018084.5     20842.53   -1997241.9   -11430.669    299.68442 
   16000   0.10651054   0.62789844   0.68997558    1.6176331    9.2367534    193.36558    228.32845   -2019360.9    21016.597   -1998344.3   -9785.0237    302.18725 
   16500    0.1090719   0.21156879   0.13188738   0.79018519    9.2367534    193.36558    228.85699   -2020510.4    20964.393     -1999546   -3778.8045    301.43663 
   17000   0.11163327  -0.39771137  -0.91465827  -0.70534225    9.2367534    193.36558    229.38553   -2020142.1    20715.948   -1999426.2    6725.7063    297.86436 
   17500   0.11419464  -0.99859949    -1.764001    -1.779787    9.2367534    193.36558    229.91406   -2019011.7    20919.902   -1998091.8    15141.292    300.79692 
   18000     0.116756  -0.73558286    -1.455795   -1.4530377    9.2367534    193.36558     230.4426   -2019430.4      20831.5   -1998598.9    12148.052    299.52583 
   18500   0.11931737   -0.2082103   -0.6595198  -0.22867261    9.2367534    193.36558    230.97114   -2020302.7    20929.924   -1999372.7    3654.6757    300.94101 
   19000   0.12187874   0.36212869   0.21237651    1.3514112    9.2367534    193.36558    231.49968   -2019799.9    20672.586   -1999127.3   -6419.7214    297.24089 
   19500    0.1244401   0.66787548   0.90069376    1.8069652    9.2367534    193.36558    232.02822   -2018558.6    20775.069   -1997783.5   -11251.781    298.71443 
   20000   0.12700147   0.58726872    1.0902612    1.2584622    9.2367534    193.36558    232.55675   -2018986.6    20908.361   -1998078.3   -9786.6404    300.63097 
   20500   0.12956284   0.35476648    0.8317301 -0.0040189671    9.2367534    193.36558    233.08529   -2019813.9    20829.896     -1998984    -3941.592    299.50276 
   21000   0.13212421 -0.071950064   0.23878974   -1.4242116    9.2367534    193.36558    233.61383   -2019953.2    20806.188     -1999147    4191.2399    299.16188 
   21500   0.13468557  -0.41791601  -0.14492531   -1.8967928    9.2367534    193.36558    234.14237   -2019655.5        20868   -1998787.5    8198.7805    300.05064 
   22000   0.13724694  -0.13105876 -0.037042293   -1.0113876    9.2367534    193.36558    234.67091   -2019971.3    20776.925   -1999194.4    3931.6289    298.74111 
   22500   0.13980831  0.064464034  0.063154983   0.41108371    9.2367534    193.36558    235.19944   -2019384.1    20883.181   -1998500.9   -1795.6757    300.26891 
   23000   0.14236967    0.2803477  -0.13428472    1.4075355    9.2367534    193.36558    235.72798   -2018694.9    20921.339   -1997773.6   -5178.6617    300.81757 
   23500   0.14493104   0.13409314  -0.35785323    1.6133935    9.2367534    193.36558    236.25652     -2019031    20755.906   -1998275.1   -4632.1113    298.43889 
   24000   0.14749241  0.020896769  -0.53926782   0.96159558    9.2367534    193.36558    236.78506     -2020221    20883.597   -1999337.4   -1477.4151     300.2749 
   24500   0.15005377  -0.19436496  -0.69363305  -0.15939811    9.2367534    193.36558     237.3136     -2020848    20935.773   -1999912.2    3491.3204    301.02511 
   25000   0.15261514  -0.52738121  -0.83680468    -1.316327    9.2367534    193.36558    237.84213   -2019869.2    20927.824   -1998941.3     8935.043    300.91082 
   25500   0.15517651  -0.37664097  -0.30996548   -1.3428499    9.2367534    193.36558    238.37067   -2019065.3    20938.743   -1998126.5    6764.8544    301.06782 
   26000   0.15773788  0.020591682   0.29234326  -0.76344041    9.2367534    193.36558    238.89921   -2019873.5    20895.029   -1998978.5    1501.6849    300.43927 
   26500   0.16029924   0.37708554   0.80685917   0.34149451    9.2367534    193.36558    239.42775   -2019963.6     20873.57     -1999090   -5084.7974    300.13072 
   27000   0.16286061   0.63353806     1.163993    1.2440522    9.2367534    193.36558    239.95629   -2018927.8    20789.438   -1998138.4   -10138.611    298.92104 
   27500   0.16542198   0.68059037    1.1913663    1.2191472    9.2367534    193.36558    240.48482   -2018252.6    20968.336   -1997284.3    -10303.68    301.49333 
   28000   0.16798334   0.37740299   0.73679776   0.50323117    9.2367534    193.36558    241.01336   -2019170.6    20875.633     -1998295   -5391.4397    300.16039 
   28500   0.17054471 -0.059894683  0.019774407  -0.60691313    9.2367534    193.36558     241.5419   -2020527.7    20870.609   -1999657.1     2156.778    300.08816 
   29000   0.17310608  -0.46285289  -0.71767013   -1.2970035    9.2367534    193.36558    242.07044   -2020565.4    21232.018   -1999333.4    8258.4218    305.28468 
   29500   0.17566744   -0.6339594    -1.041325   -1.2594518    9.2367534    193.36558    242.59898   -2019918.9     20840.96     -1999078    9782.4543    299.66185 
   30000   0.17822881   -0.2735827  -0.83975346  -0.28651141    9.2367534    193.36558    243.12752   -2019701.9    20782.547   -1998919.3    4666.1586    298.82196 
   30500   0.18079018 -0.066737302  -0.49260462   0.94050799    9.2367534    193.36558    243.65605   -2018841.2    20915.027   -1997926.2   -1270.5535    300.72682 
   31000   0.18335155   0.24511354  -0.14122175    1.5851097    9.2367534    193.36558    244.18459   -2018646.6    20907.254   -1997739.4   -5630.0048    300.61506 
   31500   0.18591291   0.39660456   0.10915153    1.5584011    9.2367534    193.36558    244.71313   -2019766.1    20856.204   -1998909.9    -6880.524    299.88104 
   32000   0.18847428   0.26203763   0.28852426   0.58502153    9.2367534    193.36558    245.24167   -2020679.3     20828.51   -1999850.8   -3785.2781    299.48284 
   32500   0.19103565  -0.10414563  0.057097688  -0.81179752    9.2367534    193.36558    245.77021   -2020256.5    20992.347   -1999264.1    2862.8182    301.83857 
   33000   0.19359701  -0.32760774  0.056503909   -1.8017312    9.2367534    193.36558    246.29874   -2018968.2    20747.204     -1998221    6909.4502    298.31378 
   33500   0.19615838  -0.19019379   0.24426002   -1.7533219    9.2367534    193.36558    246.82728   -2018941.7    20701.521   -1998240.2    5664.1857    297.65692 
   34000   0.19871975  0.094840593   0.47930472  -0.61248405    9.2367534    193.36558    247.35582   -2019860.2    20941.208     -1998919    127.79578    301.10326 
   34500   0.20128111   0.42713595   0.80026021   0.79089985    9.2367534    193.36558    247.88436   -2019682.1    20980.072     -1998702   -6727.6533    301.66207 
   35000   0.20384248   0.55743018   0.67187845    1.7371579    9.2367534    193.36558     248.4129   -2018398.7    20979.019   -1997419.7   -9888.2217    301.64692 
   35500   0.20640385   0.41159959   0.30767917    1.4897617    9.2367534    193.36558    248.94143   -2018717.7    20836.654   -1997881.1   -7363.4682    299.59993 
   36000   0.20896522   0.07621952  -0.19184117   0.68005775    9.2367534    193.36558    249.46997   -2019921.1    20898.106     -1999023   -1881.4537    300.48352 
   36500   0.21152658  -0.37026257  -0.82299089  -0.62916465    9.2367534    193.36558    249.99851   -2020562.4    20850.948   -1999711.5    6074.7271    299.80546 
   37000   0.21408795  -0.74822876   -1.3013394   -1.6033955    9.2367534    193.36558    250.52705   -2020353.7    20864.042   -1999489.7    12176.545    299.99374 
   37500   0.21664932  -0.66950218     -1.18159   -1.5536393    9.2367534    193.36558    251.05559   -2019722.1    20979.397   -1998742.7    11349.105    301.65236 
   38000   0.21921068  -0.15235438  -0.36055462  -0.28005442    9.2367534    193.36558    251.58412   -2019540.4    20929.699   -1998610.7    2643.2114    300.93777 
   38500   0.22177205   0.42805217   0.56722295    1.1154109    9.2367534    193.36558    252.11266   -2019056.4    20791.892   -1998264.5   -7035.6201    298.95633 
   39000   0.22433342   0.72222651    1.1597509    1.7101221    9.2367534    193.36558     252.6412   -2018306.2    20950.118   -1997356.1   -11973.665    301.23138 
   39500   0.22689478   0.68294807    1.1411007    1.3079427    9.2367534    193.36558    253.16974   -2019499.6    20785.331   -1998714.3   -10439.972    298.86198 
   40000   0.22945615   0.20006571   0.66474201  -0.10819173    9.2367534    193.36558    253.69828   -2019978.7    20738.719   -1999239.9   -2522.0533    298.19178 
Loop time of 721.434 on 80 procs for 40000 steps with 23333 atoms

Performance: 4.790 ns/day, 5.010 hours/ns, 55.445 timesteps/s
99.7% CPU use with 80 MPI tasks x 1 OpenMP threads

MPI task timing breakdown:
Section |  min time  |  avg time  |  max time  |%varavg| %total
---------------------------------------------------------------
Pair    | 0.0078812  | 121        | 195.32     | 729.4 | 16.77
Bond    | 0.0089512  | 0.95728    | 1.5145     |  62.0 |  0.13
Kspace  | 360.21     | 434.56     | 559.57     | 385.4 | 60.23
Neigh   | 9.8946     | 10.514     | 11.169     |   9.6 |  1.46
Comm    | 6.5795     | 22.232     | 31.383     | 117.0 |  3.08
Output  | 15.767     | 15.771     | 15.782     |   0.0 |  2.19
Modify  | 103.02     | 111.74     | 125.48     |  53.4 | 15.49
Other   |            | 4.671      |            |       |  0.65

Nlocal:    291.663 ave 500 max 0 min
Histogram: 28 0 0 1 0 0 6 1 2 42
Nghost:    5028.5 ave 8325 max 329 min
Histogram: 3 8 17 2 3 4 14 2 1 26
Neighs:    132478 ave 248772 max 0 min
Histogram: 28 0 1 1 2 2 3 4 16 23

Total # of neighbors = 10598237
Ave neighs/atom = 454.217
Ave special neighs/atom = 2.81833
Neighbor list builds = 1714
Dangerous builds = 0
write_data	dat.HAPtenz40000 #
PPPM initialization ...
  using 12-bit tables for long-range coulomb (../kspace.cpp:321)
  G vector (1/distance) = 0.295114
  grid = 27 225 270
  stencil order = 5
  estimated absolute RMS force accuracy = 0.000396904
  estimated relative force accuracy = 1.19527e-06
  using single precision FFTs
  3d grid and FFT values/proc = 46512 24300
unfix 		3

variable srate equal "-0.2/1.2/40000"
fix 		3 all deform 1 z erate ${srate} units box remap x #1 m/s
fix 		3 all deform 1 z erate -4.16666666666667e-06 units box remap x 
restart 	8000 restart.HAPcomp
run             40000 #
PPPM initialization ...
  using 12-bit tables for long-range coulomb (../kspace.cpp:321)
  G vector (1/distance) = 0.295114
  grid = 27 225 270
  stencil order = 5
  estimated absolute RMS force accuracy = 0.000396904
  estimated relative force accuracy = 1.19527e-06
  using single precision FFTs
  3d grid and FFT values/proc = 46512 24300
Per MPI rank memory allocation (min/avg/max) = 16.86 | 18.17 | 18.91 Mbytes
Step v_strain v_sx v_sy v_sz Lx Ly Lz PotEng KinEng TotEng Press Temp 
   40000   0.22945615   0.20042801   0.66510401   -0.1066988    9.2367534    193.36558    253.69828   -2019978.6    20738.719   -1999239.9   -2529.4441    298.19178 
   40500   0.22689478  -0.31582012 -0.037966988   -2.1049251    9.2367534    193.36558    253.16974   -2019025.5    21092.081   -1997933.4    8195.7074    303.27259 
   41000   0.22433342  -0.68267613  -0.44394869    -2.672705    9.2367534    193.36558     252.6412   -2018862.6    20803.545     -1998059    12664.433    299.12388 
   41500   0.22177205  -0.29160183  -0.25317675   -1.5286222    9.2367534    193.36558    252.11266   -2020881.1    20842.869   -2000038.3    6911.3359    299.68929 
   42000   0.21921068   0.16352595  0.042792524   0.56728317    9.2367534    193.36558    251.58412   -2021441.1    20870.272   -2000570.8   -2578.6721    300.08331 
   42500   0.21664932   0.38754725   0.10408168    1.8433104    9.2367534    193.36558    251.05559   -2019589.3    20876.521   -1998712.8   -7783.1312    300.17316 
   43000   0.21408795   0.41552403 -0.056928226    2.2476485    9.2367534    193.36558    250.52705   -2017639.4    20894.637   -1996744.8    -8687.481    300.43364 
   43500   0.21152658    0.1396652  -0.36546267    1.4546202    9.2367534    193.36558    249.99851   -2018205.7    20861.484   -1997344.3   -4096.0758    299.95695 
   44000   0.20896522  -0.20292241  -0.69222006 0.0042864666    9.2367534    193.36558    249.46997   -2020222.8    20831.318   -1999391.5      2969.52    299.52321 
   44500   0.20640385  -0.62462989  -0.84836642   -1.5280054    9.2367534    193.36558    248.94143   -2020129.6    20892.308   -1999237.3    10003.339    300.40016 
   45000   0.20384248  -0.47918904  -0.37020838   -2.0568378    9.2367534    193.36558     248.4129   -2019688.4    20880.582   -1998807.8    9687.4508    300.23155 
   45500   0.20128111 -0.065165547   0.24845645   -1.2717855    9.2367534    193.36558    247.88436   -2020069.8    20871.409   -1999198.4    3628.3154    300.09965 
   46000   0.19871975   0.36034872   0.80252524   0.14601756    9.2367534    193.36558    247.35582   -2020060.2    20830.766   -1999229.4   -4362.9717    299.51528 
   46500   0.19615838   0.79249753    1.1306353    1.3692344    9.2367534    193.36558    246.82728   -2018487.7    21102.831   -1997384.8   -10974.557    303.42716 
   47000   0.19359701    0.7961109    1.3240944    1.9030053    9.2367534    193.36558    246.29874   -2018438.3    20856.558   -1997581.7   -13410.702    299.88612 
   47500   0.19103565   0.63269977   0.87979742    1.2895991    9.2367534    193.36558    245.77021   -2019699.1    20861.845   -1998837.2   -9340.3209    299.96215 
   48000   0.18847428 -0.012679386 -0.069517266  -0.21194634    9.2367534    193.36558    245.24167   -2020406.9    20836.897     -1999570    980.47663    299.60342 
   48500   0.18591291  -0.75841235   -1.1404235   -1.7555678    9.2367534    193.36558    244.71313   -2018906.3     20792.14   -1998114.2    12181.346    298.95989 
   49000   0.18335155  -0.86657828   -1.4267237   -2.0681643    9.2367534    193.36558    244.18459   -2019030.7    20789.761   -1998240.9    14538.221    298.92568 
   49500   0.18079018  -0.53014019   -1.0769072  -0.94130852    9.2367534    193.36558    243.65605   -2021008.7    20977.053   -2000031.7    8494.5197    301.61867 
   50000   0.17822881 -0.028281934  -0.59130961   0.72603206    9.2367534    193.36558    243.12752   -2021232.1    20759.315   -2000472.7    -354.8017    298.48792 
   50500   0.17566744   0.45617576   0.15403868    1.8551475    9.2367534    193.36558    242.59898   -2019075.1      20842.3   -1998232.8   -8217.8731    299.68112 
   51000   0.17310608   0.73689154   0.76655716    2.1595142    9.2367534    193.36558    242.07044   -2017786.1    20759.419   -1997026.6   -12209.876    298.48941 
   51500   0.17054471   0.51051017   0.75264203    1.1317752    9.2367534    193.36558     241.5419   -2019069.2    20802.367   -1998266.8   -7983.0915    299.10693 
   52000   0.16798334   0.12755047   0.45521299  -0.62673435    9.2367534    193.36558    241.01336   -2020485.3    20874.481   -1999610.8    146.56963    300.14383 
   52500   0.16542198  -0.34126854  0.064730013   -2.0442703    9.2367534    193.36558    240.48482     -2019783    20682.319   -1999100.7    7736.0294    297.38082 
   53000   0.16286061   -0.3804323 0.0086262666   -2.3283267    9.2367534    193.36558    239.95629   -2019418.4    20737.821   -1998680.6    9000.4425    298.17886 
   53500   0.16029924 -0.051752593   0.14193471   -1.0535307    9.2367534    193.36558    239.42775   -2020055.6    20984.597     -1999071    3211.1618    301.72714 
   54000   0.15773788   0.27240152   0.27936214   0.64774255    9.2367534    193.36558    238.89921   -2020117.4    20896.071   -1999221.3    -3998.354    300.45426 
   54500   0.15517651   0.55764627   0.58719917    1.9924551    9.2367534    193.36558    238.37067   -2019167.3    20921.974   -1998245.4   -10457.669     300.8267 
   55000   0.15261514   0.65432166   0.39539103    2.2171509    9.2367534    193.36558    237.84213   -2018645.4    20942.455   -1997702.9   -10889.545    301.12119 
   55500   0.15005377   0.10642081  -0.21220727     1.053333    9.2367534    193.36558     237.3136   -2019890.9    21013.322   -1998877.6   -3158.4884    302.14016 
   56000   0.14749241  -0.51504131   -1.0768534  -0.80702186    9.2367534    193.36558    236.78506   -2019696.1     20582.99   -1999113.1    7996.3886    295.95262 
   56500   0.14493104  -0.85152637   -1.4249198   -2.1579931    9.2367534    193.36558    236.25652   -2019098.6    20803.945   -1998294.6    14781.464    299.12963 
   57000   0.14236967  -0.76570605   -1.1190117   -1.9700309    9.2367534    193.36558    235.72798     -2020158    20814.837   -1999343.2    12849.162    299.28624 
   57500   0.13980831  -0.11750742   -0.2146668  -0.52059798    9.2367534    193.36558    235.19944   -2021292.5    20834.283   -2000458.3     2842.574    299.56584 
   58000   0.13724694   0.48870655   0.67731258    1.2816256    9.2367534    193.36558    234.67091   -2020132.8    20857.841     -1999275   -8158.8156    299.90458 
   58500   0.13468557    0.9307063    1.2974252    2.1617153    9.2367534    193.36558    234.14237     -2018168    20862.009     -1997306   -14632.823     299.9645 
   59000   0.13212421   0.86795161    1.4684493    1.8472706    9.2367534    193.36558    233.61383   -2017804.1    20797.472   -1997006.6   -13945.571    299.03655 
   59500   0.12956284   0.42659339   0.74623653   0.37763104    9.2367534    193.36558    233.08529   -2019729.6    21069.913   -1998659.7   -5168.2032    302.95385 
   60000   0.12700147  -0.22261752 -0.0006000282   -1.3768363    9.2367534    193.36558    232.55675   -2020353.9    20943.498   -1999410.4    5333.5129    301.13619 
   60500    0.1244401  -0.57466757  -0.55858727   -2.3092431    9.2367534    193.36558    232.02822   -2019908.3    20972.424   -1998935.9    11474.993     301.5521 
   61000   0.12187874   -0.4938381  -0.46844641   -1.6549083    9.2367534    193.36558    231.49968   -2019963.3    20700.257     -1999263    8723.9761    297.63874 
   61500   0.11931737   -0.1629647  -0.40236165  -0.11158468    9.2367534    193.36558    230.97114   -2020640.2    20830.084   -1999810.2    2256.3701    299.50546 
   62000     0.116756   0.14246578  -0.31695907    1.4490616    9.2367534    193.36558     230.4426   -2019908.1    20844.523   -1999063.5   -4248.5609    299.71307 
   62500   0.11419464    0.3827448  -0.11986304    2.1897098    9.2367534    193.36558    229.91406   -2018661.8    20790.706     -1997871   -8175.3052    298.93927 
   63000   0.11163327   0.35244603 -0.052452407    1.8666258    9.2367534    193.36558    229.38553     -2018945    20762.794   -1998182.2   -7222.0648    298.53793 
   63500    0.1090719  0.084594964  -0.19613858    0.4860829    9.2367534    193.36558    228.85699   -2020029.5    20951.214   -1999078.3   -1248.4643    301.24713 
   64000   0.10651054  -0.36067343  -0.46214501   -1.1111914    9.2367534    193.36558    228.32845     -2019908    20653.691   -1999254.3    6446.6994     296.9692 
   64500   0.10394917  -0.47846803  -0.29404479   -2.2063869    9.2367534    193.36558    227.79991   -2019185.9    20725.924     -1998460    9929.6656    298.00779 
   65000    0.1013878  -0.15687428   0.31590492   -1.7272426    9.2367534    193.36558    227.27137   -2020081.2    20749.526   -1999331.6    5227.3732    298.34716 
   65500  0.098826435   0.30917691   0.81880407  -0.42106367    9.2367534    193.36558    226.74283   -2020999.2     20857.03   -2000142.2    -2356.391    299.89291 
   66000  0.096265068   0.55569225   0.93540506    1.0074726    9.2367534    193.36558     226.2143   -2019848.5    20687.833   -1999160.7   -8328.5662    297.46011 
   66500  0.093703701   0.76131389    1.0662168    2.0253172    9.2367534    193.36558    225.68576   -2018333.4    20969.219   -1997364.2   -12842.826    301.50601 
   67000  0.091142334   0.60966302   0.75488183     1.825093    9.2367534    193.36558    225.15722   -2018701.7     21035.38   -1997666.3   -10632.126    302.45732 
   67500  0.088580967   0.16760723  -0.15477332   0.64769483    9.2367534    193.36558    224.62868   -2020327.9    21011.959     -1999316   -2201.7625    302.12055 
   68000    0.0860196  -0.60379232   -1.2282007  -0.96059241    9.2367534    193.36558    224.10014     -2020449    21015.177   -1999433.8    9308.6182    302.16682 
   68500  0.083458233  -0.91528599   -1.7698015   -2.0586913    9.2367534    193.36558    223.57161   -2019796.9    20793.853     -1999003    15812.596    298.98452 
   69000  0.080896866  -0.69976558   -1.2928879    -1.436261    9.2367534    193.36558    223.04307     -2020037    21039.267   -1998997.7    11429.715     302.5132 
   69500  0.078335499  -0.15885652  -0.56725692 -0.032852836    9.2367534    193.36558    222.51453   -2020796.6    20946.206   -1999850.4    2529.8876    301.17512 
   70000  0.075774132   0.42404265   0.29086025    1.4185658    9.2367534    193.36558    221.98599   -2020161.8    21074.739   -1999087.1   -7111.5623    303.02323 
   70500  0.073212765   0.83046618    1.1250188    2.1112078    9.2367534    193.36558    221.45745   -2019397.6    20907.901   -1998489.7   -13555.643    300.62435 
   71000  0.070651398   0.79405488    1.3402082    1.4060829    9.2367534    193.36558    220.92892   -2019325.9     20744.72   -1998581.2   -11801.153    298.27806 
   71500  0.068090031   0.29022401   0.86719691  -0.24401455    9.2367534    193.36558    220.40038   -2019291.7    20862.606   -1998429.1   -3044.6879    299.97309 
   72000  0.065528664  -0.17726974    0.2814297   -1.6151153    9.2367534    193.36558    219.87184   -2019167.7    20877.989   -1998289.7    5036.5177    300.19427 
   72500  0.062967297   -0.3202513   0.15643413   -1.8673427    9.2367534    193.36558     219.3433   -2020207.9    20747.036   -1999460.9     6770.533    298.31136 
   73000   0.06040593  -0.10476458 -0.054982137  -0.89457462    9.2367534    193.36558    218.81476   -2021106.2    20879.321   -2000226.9    3514.4044    300.21342 
   73500  0.057844563  0.012514425  -0.16142506   0.41119803    9.2367534    193.36558    218.28623   -2020722.4    20845.046   -1999877.3   -874.29129     299.7206 
   74000  0.055283196   0.18706814  -0.14135537    1.3669059    9.2367534    193.36558    217.75769     -2019493    20984.233   -1998508.8    -4708.729     301.7219 
   74500  0.052721829   0.19553482  -0.33077451    1.2410198    9.2367534    193.36558    217.22915   -2019635.5    20916.759   -1998718.7   -3685.9336    300.75172 
   75000  0.050160462   -0.1594741  -0.72821059   0.47629961    9.2367534    193.36558    216.70061   -2020768.7    20810.046   -1999958.7    1371.2836    299.21736 
   75500  0.047599095  -0.47699604   -1.2046065  -0.69956454    9.2367534    193.36558    216.17207   -2020388.1    20834.856   -1999553.3    7937.2237    299.57408 
   76000  0.045037728  -0.46960425  -0.86040407  -0.96764588    9.2367534    193.36558    215.64354   -2020289.9    20879.457   -1999410.4    7658.8474    300.21538 
   76500  0.042476362  0.019991884 -0.0055549473  -0.12926296    9.2367534    193.36558      215.115   -2020536.1    20827.679   -1999708.4    382.75342    299.47088 
   77000  0.039914995   0.48574036   0.69781978   0.88779241    9.2367534    193.36558    214.58646   -2020969.4    20706.231   -2000263.2   -6904.5085    297.72464 
   77500  0.037353628   0.71056954    1.2132813    1.4812658    9.2367534    193.36558    214.05792     -2021474    20823.014     -2000651   -11350.389    299.40381 
   78000  0.034792261   0.66699091     1.155101    1.2852324    9.2367534    193.36558    213.52938   -2021066.2    20905.165     -2000161   -10357.748    300.58502 
   78500  0.032230894   0.42089709    1.0760136   0.81904983    9.2367534    193.36558    213.00084     -2021824    20933.471   -2000890.5   -7719.8684    300.99202 
   79000  0.029669527   0.14879141   0.14862323   0.04722845    9.2367534    193.36558    212.47231   -2022477.8    20845.118   -2001632.7   -1148.8103    299.72163 
   79500   0.02710816  -0.34387878  -0.61661569   -0.3208987    9.2367534    193.36558    211.94377     -2023224    20864.955   -2002359.1    4271.3106    300.00686 
   80000  0.024546793  -0.32469086  -0.78195387  -0.29102853    9.2367534    193.36558    211.41523   -2022863.4    21042.514   -2001820.9    4658.9109    302.55989 
Loop time of 819.879 on 80 procs for 40000 steps with 23333 atoms

Performance: 4.215 ns/day, 5.694 hours/ns, 48.788 timesteps/s
99.7% CPU use with 80 MPI tasks x 1 OpenMP threads

MPI task timing breakdown:
Section |  min time  |  avg time  |  max time  |%varavg| %total
---------------------------------------------------------------
Pair    | 0.010382   | 121.35     | 198.5      | 744.0 | 14.80
Bond    | 0.0088854  | 0.96054    | 1.4931     |  62.7 |  0.12
Kspace  | 422.99     | 501.39     | 627.26     | 367.1 | 61.15
Neigh   | 8.6556     | 9.2819     | 9.8666     |   9.7 |  1.13
Comm    | 6.413      | 24.878     | 35.63      | 132.8 |  3.03
Output  | 13.072     | 13.118     | 13.165     |   0.9 |  1.60
Modify  | 103.73     | 125.79     | 159.95     | 147.1 | 15.34
Other   |            | 23.11      |            |       |  2.82

Nlocal:    291.663 ave 409 max 0 min
Histogram: 20 0 0 0 0 0 2 0 3 55
Nghost:    5602.95 ave 7766 max 1358 min
Histogram: 9 11 0 0 2 1 17 0 2 38
Neighs:    135850 ave 200361 max 0 min
Histogram: 20 0 0 1 0 1 2 5 13 38

Total # of neighbors = 10868016
Ave neighs/atom = 465.779
Ave special neighs/atom = 2.81833
Neighbor list builds = 1460
Dangerous builds = 0
write_data	dat.HAPcomp40000 #
PPPM initialization ...
  using 12-bit tables for long-range coulomb (../kspace.cpp:321)
  G vector (1/distance) = 0.296334
  grid = 27 225 240
  stencil order = 5
  estimated absolute RMS force accuracy = 0.000392723
  estimated relative force accuracy = 1.18267e-06
  using single precision FFTs
  3d grid and FFT values/proc = 42408 18792
unfix 		3
unfix 		2

#Sinter 1
fix 		2 all npt temp 300 300 10 z 1 6513.69 1000
run 10000
PPPM initialization ...
  using 12-bit tables for long-range coulomb (../kspace.cpp:321)
  G vector (1/distance) = 0.296334
  grid = 27 225 240
  stencil order = 5
  estimated absolute RMS force accuracy = 0.000392723
  estimated relative force accuracy = 1.18267e-06
  using single precision FFTs
  3d grid and FFT values/proc = 42408 18792
Per MPI rank memory allocation (min/avg/max) = 16.55 | 17.76 | 18.31 Mbytes
Step v_strain v_sx v_sy v_sz Lx Ly Lz PotEng KinEng TotEng Press Temp 
   80000  0.024546793  -0.32521353  -0.78248372  -0.29318253    9.2367534    193.36558    211.41523   -2022863.3    21042.514   -2001820.8    4669.5993    302.55989 
   80500  0.024951642   -0.3215352  -0.80261219  0.073786269    9.2367534    193.36558    211.49877   -2022732.9    21028.257   -2001704.7    3501.2037     302.3549 
   81000  0.025164796  -0.34009532  -0.93943878  -0.11049475    9.2367534    193.36558    211.54276     -2023173    20790.852   -2002382.1    4633.4295    298.94137 
   81500   0.02705307  -0.44539174  -0.95163463  -0.19100245    9.2367534    193.36558     211.9324   -2023522.3    20747.217   -2002775.1    5293.4294    298.31397 
   82000  0.028170478 -0.055035146  0.022321439 -0.042121169    9.2367534    193.36558    212.16298   -2023618.6    20873.458   -2002745.2    249.44959    300.12911 
   82500  0.027088556   0.17155219   0.50505698  -0.18264342    9.2367534    193.36558    211.93972   -2022859.3    20727.213     -2002132   -1646.5525    298.02634 
   83000  0.025362851   0.27592334   0.79284678  -0.17798211    9.2367534    193.36558    211.58362   -2022979.4    20717.119   -2002262.3   -2969.2933     297.8812 
   83500  0.023275873   0.15678387   0.76169259  -0.28907939    9.2367534    193.36558    211.15298   -2023081.2    20758.714   -2002322.5   -2097.9902    298.47927 
   84000  0.022018773   0.35511108   0.95327657   -0.2766853    9.2367534    193.36558    210.89357   -2023070.5    20845.208   -2002225.3   -3439.0078    299.72292 
   84500  0.022008624   0.32166775   0.88817037  -0.24172179    9.2367534    193.36558    210.89148     -2022758    20830.009     -2001928   -3227.0544    299.50439 
   85000  0.023719597 -0.013913641  0.042829189  -0.38764624    9.2367534    193.36558    211.24454   -2022771.5    20782.917   -2001988.6     1195.769    298.82727 
   85500  0.025399521  -0.21477022  -0.39402971  -0.25297711    9.2367534    193.36558    211.59119     -2023374    20830.739   -2002543.3    2872.5901    299.51489 
   86000  0.025372123  -0.27553001   -0.6107656  -0.38908122    9.2367534    193.36558    211.58554   -2023808.3    20854.044   -2002954.2    4251.2561    299.84998 
   86500  0.025505312  -0.29960329  -0.61267168  -0.42493098    9.2367534    193.36558    211.61302   -2023529.8    20781.907   -2002747.9    4457.3532    298.81275 
   87000  0.025606107  -0.48094835  -0.88925515  -0.43721604    9.2367534    193.36558    211.63382   -2022795.2    21030.054   -2001765.1    6024.7318    302.38074 
   87500  0.024803794  -0.41734117  -0.76394252  -0.47695599    9.2367534    193.36558    211.46826   -2023511.4    20804.047   -2002707.3    5527.4656    299.13109 
   88000  0.024689504  -0.13189092  -0.14425474  -0.48614547    9.2367534    193.36558    211.44468     -2023591    20850.525   -2002740.5    2540.9705    299.79938 
   88500  0.023599315 -0.040978611   0.18620268  -0.55443183    9.2367534    193.36558    211.21972   -2023437.3    20887.805   -2002549.5    1364.0259    300.33541 
   89000  0.021902178  0.055899241   0.43236943   -0.5720406    9.2367534    193.36558    210.86951   -2023038.9    20936.341   -2002102.6    279.23976    301.03328 
   89500  0.020655057  0.014854754   0.62122535  -0.63677951    9.2367534    193.36558    210.61217   -2022538.6    20808.358   -2001730.3    2.3313491    299.19308 
   90000  0.019109403    0.3068211    1.1269807  -0.72781001    9.2367534    193.36558    210.29323   -2022980.9    20828.811   -2002152.1    -2353.306    299.48717 
Loop time of 183.255 on 80 procs for 10000 steps with 23333 atoms

Performance: 4.715 ns/day, 5.090 hours/ns, 54.569 timesteps/s
99.7% CPU use with 80 MPI tasks x 1 OpenMP threads

MPI task timing breakdown:
Section |  min time  |  avg time  |  max time  |%varavg| %total
---------------------------------------------------------------
Pair    | 0.043846   | 31.059     | 45.41      | 330.1 | 16.95
Bond    | 0.0039091  | 0.4417     | 0.63186    |  37.9 |  0.24
Kspace  | 96.335     | 112.7      | 146.14     | 183.3 | 61.50
Neigh   | 1.9943     | 2.136      | 2.2792     |   4.9 |  1.17
Comm    | 1.1222     | 4.3222     | 8.1558     |  83.3 |  2.36
Output  | 3.5231     | 3.5232     | 3.5232     |   0.0 |  1.92
Modify  | 26.521     | 28.019     | 29.445     |  14.7 | 15.29
Other   |            | 1.052      |            |       |  0.57

Nlocal:    291.663 ave 401 max 0 min
Histogram: 20 0 0 0 0 0 2 0 2 56
Nghost:    5615.41 ave 7685 max 1348 min
Histogram: 3 17 0 0 2 0 18 0 2 38
Neighs:    135023 ave 193563 max 0 min
Histogram: 20 0 0 1 0 1 1 0 18 39

Total # of neighbors = 10801834
Ave neighs/atom = 462.942
Ave special neighs/atom = 2.81833
Neighbor list builds = 386
Dangerous builds = 0
unfix 2
write_restart	restart.HAP1930sint11
PPPM initialization ...
  using 12-bit tables for long-range coulomb (../kspace.cpp:321)
  G vector (1/distance) = 0.296431
  grid = 27 225 240
  stencil order = 5
  estimated absolute RMS force accuracy = 0.000390415
  estimated relative force accuracy = 1.17572e-06
  using single precision FFTs
  3d grid and FFT values/proc = 42408 18792

fix 		2 all npt temp 300 300 10 z 6513.69 6513.69 1000
run 10000
PPPM initialization ...
  using 12-bit tables for long-range coulomb (../kspace.cpp:321)
  G vector (1/distance) = 0.296431
  grid = 27 225 240
  stencil order = 5
  estimated absolute RMS force accuracy = 0.000390415
  estimated relative force accuracy = 1.17572e-06
  using single precision FFTs
  3d grid and FFT values/proc = 42408 18792
Per MPI rank memory allocation (min/avg/max) = 16.55 | 17.76 | 18.31 Mbytes
Step v_strain v_sx v_sy v_sz Lx Ly Lz PotEng KinEng TotEng Press Temp 
   90000  0.019109403   0.30682123    1.1269808  -0.72781023    9.2367534    193.36558    210.29323   -2022980.9    20828.811   -2002152.1    -2353.306    299.48717 
   90500   0.02080215     0.368988    1.0132171  -0.57745771    9.2367534    193.36558    210.64252   -2023272.5    20866.959   -2002405.5   -2682.4911    300.03567 
   91000  0.023152639 -0.034339583   0.17357512  -0.77588954    9.2367534    193.36558    211.12755   -2023204.7    20858.034   -2002346.7      2122.18    299.90734 
   91500  0.024993243  -0.17590695  -0.11563658  -0.67265616    9.2367534    193.36558    211.50736   -2023080.9    20894.856     -2002186    3213.9989     300.4368 
   92000  0.025579498  -0.23910351  -0.36415912  -0.63415632    9.2367534    193.36558    211.62833   -2023381.7    20855.026   -2002526.7    4124.7298    299.86409 
   92500  0.024198704   -0.3277352   -0.6362543  -0.63421061    9.2367534    193.36558     211.3434   -2023646.1    20692.802   -2002953.3    5327.3337    297.53156 
   93000  0.022983822  -0.56174332   -1.1685486   -0.6088224    9.2367534    193.36558    211.09271   -2023352.2    20762.983   -2002589.2    7797.0479    298.54065 
   93500  0.021287045  -0.47013162  -0.93157606  -0.76256598    9.2367534    193.36558    210.74258   -2023126.9    20845.977   -2002280.9    7214.2456    299.73398 
   94000  0.021577264  -0.17367338  -0.22455841  -0.42116979    9.2367534    193.36558    210.80247   -2023302.1    21074.639   -2002227.5    2731.3386    303.02181 
   94500  0.022487618 -0.075502606  0.026410224  -0.64866161    9.2367534    193.36558    210.99032   -2023487.3    20864.153   -2002623.2    2325.8466    299.99533 
   95000  0.023926039 -0.0013626857   0.30293519   -0.6294534    9.2367534    193.36558    211.28714   -2023246.4    20897.465   -2002348.9    1092.9363     300.4743 
   95500  0.024307347    0.1312854   0.69699597  -0.63134073    9.2367534    193.36558    211.36582   -2022948.4    20725.395     -2002223   -656.46883     298.0002 
   96000  0.022095014   0.36643983      1.13967  -0.68936933    9.2367534    193.36558    210.90931     -2022568    20691.037   -2001876.9   -2722.4684    297.50618 
   96500  0.020915075   0.17346539    1.0103811  -0.67355716    9.2367534    193.36558    210.66583   -2022878.8    21124.067   -2001754.7   -1700.9644     303.7325 
   97000   0.02052684  0.014185906   0.38567317  -0.66528825    9.2367534    193.36558    210.58571   -2023292.6    20964.955   -2002327.6    884.76391    301.44471 
   97500  0.021581411 -0.019119865   0.14618558  -0.55671747    9.2367534    193.36558    210.80332   -2023404.8    20862.764     -2002542    1432.1725    299.97535 
   98000  0.022262481  -0.20214733  -0.38821244  -0.71926976    9.2367534    193.36558    210.94386   -2023227.2    20815.063   -2002412.1    4365.4318    299.28949 
   98500  0.023473989  -0.44657448  -0.76462537  -0.68629447    9.2367534    193.36558    211.19386   -2023384.9    20872.125   -2002512.8    6324.9811    300.10995 
   99000  0.023862068  -0.43699647   -1.0388163  -0.58432107    9.2367534    193.36558    211.27394   -2023645.6     20819.29   -2002826.3    6867.1126    299.35026 
   99500  0.023337985  -0.41945152  -0.86107799  -0.71952753    9.2367534    193.36558    211.16579   -2023493.8    21037.865   -2002455.9    6666.8568    302.49305 
  100000  0.023407159  -0.29101001  -0.41026183  -0.62063771    9.2367534    193.36558    211.18007   -2023290.5    20778.884   -2002511.6    4406.3652    298.76929 
Loop time of 178.634 on 80 procs for 10000 steps with 23333 atoms

Performance: 4.837 ns/day, 4.962 hours/ns, 55.980 timesteps/s
99.7% CPU use with 80 MPI tasks x 1 OpenMP threads

MPI task timing breakdown:
Section |  min time  |  avg time  |  max time  |%varavg| %total
---------------------------------------------------------------
Pair    | 0.042615   | 31.099     | 45.47      | 330.3 | 17.41
Bond    | 0.0038452  | 0.44242    | 0.6419     |  38.2 |  0.25
Kspace  | 94.385     | 110.99     | 144.32     | 184.4 | 62.13
Neigh   | 1.9208     | 2.0824     | 2.2268     |   5.2 |  1.17
Comm    | 1.1004     | 4.1317     | 7.8048     |  81.3 |  2.31
Output  | 0.93925    | 0.93933    | 0.93941    |   0.0 |  0.53
Modify  | 26.447     | 27.94      | 29.284     |  14.7 | 15.64
Other   |            | 1.011      |            |       |  0.57

Nlocal:    291.663 ave 404 max 0 min
Histogram: 20 0 0 0 0 1 1 0 3 55
Nghost:    5606.18 ave 7759 max 1315 min
Histogram: 5 15 0 0 2 0 18 0 2 38
Neighs:    135806 ave 197054 max 0 min
Histogram: 20 0 0 1 0 1 1 2 15 40

Total # of neighbors = 10864457
Ave neighs/atom = 465.626
Ave special neighs/atom = 2.81833
Neighbor list builds = 370
Dangerous builds = 0
unfix 2
write_restart	restart.HAP1930sint12
PPPM initialization ...
  using 12-bit tables for long-range coulomb (../kspace.cpp:321)
  G vector (1/distance) = 0.296355
  grid = 27 225 240
  stencil order = 5
  estimated absolute RMS force accuracy = 0.000392232
  estimated relative force accuracy = 1.1812e-06
  using single precision FFTs
  3d grid and FFT values/proc = 42408 18792

fix 		2 all npt temp 300 300 10 z 6513.69 1 1000
run 10000
PPPM initialization ...
  using 12-bit tables for long-range coulomb (../kspace.cpp:321)
  G vector (1/distance) = 0.296355
  grid = 27 225 240
  stencil order = 5
  estimated absolute RMS force accuracy = 0.000392232
  estimated relative force accuracy = 1.1812e-06
  using single precision FFTs
  3d grid and FFT values/proc = 42408 18792
Per MPI rank memory allocation (min/avg/max) = 16.55 | 17.76 | 18.31 Mbytes
Step v_strain v_sx v_sy v_sz Lx Ly Lz PotEng KinEng TotEng Press Temp 
  100000  0.023407159   -0.2910102  -0.41026221  -0.62063761    9.2367534    193.36558    211.18007   -2023290.5    20778.884   -2002511.6    4406.3667    298.76929 
  100500  0.022874718  -0.11525814 -0.055902525  -0.60349645    9.2367534    193.36558     211.0702   -2023533.8     20834.63   -2002699.2    2582.1904    299.57084 
  101000  0.022946696 -0.073097844   0.25207066  -0.68001268    9.2367534    193.36558    211.08505   -2023672.1    20762.255   -2002909.8    1670.1329    298.53019 
  101500  0.022379808   0.20850342   0.75493503  -0.47448232    9.2367534    193.36558    210.96807   -2022945.9    20938.913   -2002006.9   -1629.8538    301.07027 
  102000   0.02077256   0.26006505   0.87699749  -0.59397763    9.2367534    193.36558    210.63642   -2023003.7    20887.639     -2002116    -1810.283    300.33302 
  102500  0.020823068   0.18396391   0.83141725  -0.44628376    9.2367534    193.36558    210.64684   -2022531.6    20899.808   -2001631.8   -1896.9913    300.50799 
  103000  0.020084343   0.27608793   0.57473282  -0.40824444    9.2367534    193.36558     210.4944   -2023192.1    20889.438   -2002302.7   -1475.2544    300.35889 
  103500  0.021618718  0.032479494   0.41473169  -0.41139728    9.2367534    193.36558    210.81102   -2023571.3    20902.813   -2002668.4   -119.37969     300.5512 
  104000   0.02389353  -0.02827364  -0.14450528  -0.36424675    9.2367534    193.36558    211.28043   -2023506.1    20786.034   -2002720.1    1790.0856    298.87209 
  104500  0.026577324  -0.37449684  -0.74462434   -0.4533534    9.2367534    193.36558    211.83423   -2023157.9    20843.048   -2002314.9    5241.5819    299.69187 
  105000  0.027438795   -0.3718139  -0.98565957  -0.19961919    9.2367534    193.36558      212.012     -2023039    20672.919   -2002366.1    5190.3089    297.24567 
  105500  0.025817087  -0.32884736  -0.83196536  -0.33019596    9.2367534    193.36558    211.67736     -2023489    20945.505   -2002543.5    4970.0289    301.16505 
  106000  0.023719266  -0.23160099  -0.63773356  -0.19833004    9.2367534    193.36558    211.24447   -2023650.1    20780.343   -2002869.8    3558.8819    298.79027 
  106500  0.022586785  -0.14827181  -0.40297304  -0.28864127    9.2367534    193.36558    211.01078   -2023392.4    20970.625   -2002421.8    2799.6204    301.52623 
  107000  0.022792385 -0.015789239  0.034333984  -0.20112605    9.2367534    193.36558    211.05321   -2022819.4    20895.207   -2001924.2    608.60436    300.44184 
  107500  0.023221427   0.23368557   0.76783295  -0.12772634    9.2367534    193.36558    211.14174   -2023286.3    20810.161   -2002476.1   -2912.6406      299.219 
  108000  0.024387355   0.34570136   0.82859517  -0.18114214    9.2367534    193.36558    211.38233   -2023318.8    20713.546   -2002605.3   -3310.5146    297.82983 
  108500  0.025307262   0.24657403   0.91059134  -0.09565141    9.2367534    193.36558    211.57215   -2022985.2    20767.896   -2002217.3   -3538.3799     298.6113 
  109000  0.024992008   0.25772683   0.75922779 -0.033135521    9.2367534    193.36558     211.5071   -2022751.7    21005.507   -2001746.2    -3279.397    302.02779 
  109500  0.024273025   0.11586985   0.52658786 -0.090810136    9.2367534    193.36558    211.35874   -2023073.3    20896.351   -2002176.9   -1838.8252    300.45828 
  110000  0.024744189  0.080540035    0.1108405  0.095349008    9.2367534    193.36558    211.45596   -2023595.5    20712.305   -2002883.2   -955.76515    297.81198 
Loop time of 179.725 on 80 procs for 10000 steps with 23333 atoms

Performance: 4.807 ns/day, 4.992 hours/ns, 55.641 timesteps/s
99.7% CPU use with 80 MPI tasks x 1 OpenMP threads

MPI task timing breakdown:
Section |  min time  |  avg time  |  max time  |%varavg| %total
---------------------------------------------------------------
Pair    | 0.041501   | 31.056     | 45.769     | 329.8 | 17.28
Bond    | 0.0037167  | 0.44455    | 0.63776    |  38.2 |  0.25
Kspace  | 95.276     | 112.27     | 145.56     | 183.1 | 62.47
Neigh   | 1.9616     | 2.1153     | 2.2698     |   5.3 |  1.18
Comm    | 1.114      | 4.1461     | 7.8708     |  81.9 |  2.31
Output  | 0.76231    | 0.76245    | 0.76256    |   0.0 |  0.42
Modify  | 26.459     | 27.976     | 29.27      |  14.5 | 15.57
Other   |            | 0.9568     |            |       |  0.53

Nlocal:    291.663 ave 403 max 0 min
Histogram: 20 0 0 0 0 1 1 0 2 56
Nghost:    5596.96 ave 7718 max 1329 min
Histogram: 2 18 0 0 2 0 18 0 2 38
Neighs:    135304 ave 196061 max 0 min
Histogram: 20 0 0 1 0 1 1 1 18 38

Total # of neighbors = 10824358
Ave neighs/atom = 463.908
Ave special neighs/atom = 2.81833
Neighbor list builds = 382
Dangerous builds = 0
unfix 2
write_restart	restart.HAP1930sint13
PPPM initialization ...
  using 12-bit tables for long-range coulomb (../kspace.cpp:321)
  G vector (1/distance) = 0.296331
  grid = 27 225 240
  stencil order = 5
  estimated absolute RMS force accuracy = 0.000392808
  estimated relative force accuracy = 1.18293e-06
  using single precision FFTs
  3d grid and FFT values/proc = 42408 18792

fix 		2 all npt temp 300 300 10 z 1 1 1000
run 10000
PPPM initialization ...
  using 12-bit tables for long-range coulomb (../kspace.cpp:321)
  G vector (1/distance) = 0.296331
  grid = 27 225 240
  stencil order = 5
  estimated absolute RMS force accuracy = 0.000392808
  estimated relative force accuracy = 1.18293e-06
  using single precision FFTs
  3d grid and FFT values/proc = 42408 18792
Per MPI rank memory allocation (min/avg/max) = 16.55 | 17.76 | 18.31 Mbytes
Step v_strain v_sx v_sy v_sz Lx Ly Lz PotEng KinEng TotEng Press Temp 
  110000  0.024744189  0.080539995   0.11084041  0.095349088    9.2367534    193.36558    211.45596   -2023595.5    20712.305   -2002883.2   -955.76497    297.81198 
  110500  0.025130332  -0.25293019  -0.64633234   -0.0328595    9.2367534    193.36558    211.53564   -2023626.4    20773.319   -2002853.1    3107.0734    298.68927 
  111000  0.026364441   -0.3597374  -0.90586988 -0.044386472    9.2367534    193.36558     211.7903   -2023106.8    20835.716   -2002271.1    4366.6458    299.58644 
  111500  0.027150827  -0.30209373  -0.93908417  0.030403774    9.2367534    193.36558    211.95257   -2022911.6    20844.228   -2002067.4    4035.9137    299.70884 
  112000  0.026106117  -0.33960663  -0.88382893 -0.0036880635    9.2367534    193.36558      211.737   -2023689.2    20829.438   -2002859.8    4090.4121    299.49617 
  112500  0.025931041 -0.072550466  -0.36848165  0.088085014    9.2367534    193.36558    211.70087   -2023524.5    20747.084   -2002777.4    1176.4903    298.31205 
  113000  0.024865633  0.017082607  0.076087489 -0.085079973    9.2367534    193.36558    211.48102   -2023207.6    20851.551     -2002356   -26.967075    299.81412 
  113500  0.025108407   0.21028895   0.62221456  0.070993544    9.2367534    193.36558    211.53112   -2022907.9    20827.187   -2002080.7   -3011.6569    299.46381 
  114000  0.025123231   0.30066503   0.84771481 -0.062573489    9.2367534    193.36558    211.53418   -2023034.1    20795.618   -2002238.4   -3619.3545     299.0099 
  114500  0.025096276   0.27077422    0.8452344  0.013256173    9.2367534    193.36558    211.52862   -2023292.1    20673.157   -2002618.9    -3764.216    297.24908 
  115000  0.024354145   0.33664959   0.76859471  0.049685224    9.2367534    193.36558    211.37548   -2022942.7     20896.53   -2002046.2   -3849.7651    300.46086 
  115500  0.023611725   0.20942589   0.55107248  0.062692463    9.2367534    193.36558    211.22228   -2023096.1    20759.137     -2002337   -2743.9694    298.48535 
  116000  0.023376488  0.012300147 0.0023002691 -0.059414122    9.2367534    193.36558    211.17374   -2023472.1    20937.815   -2002534.3    149.37902    301.05448 
  116500   0.02461745  -0.08734411  -0.37494063  -0.02727376    9.2367534    193.36558    211.42981   -2023474.7    20823.317   -2002651.3    1631.8617    299.40817 
  117000  0.026870243  -0.27840935  -0.79504347  0.065089373    9.2367534    193.36558    211.89467   -2023601.7    20938.163   -2002663.5    3361.2115    301.05947 
  117500  0.028387368  -0.38797402  -0.87928145 -0.047569892    9.2367534    193.36558    212.20773   -2023170.5    20858.412     -2002312    4382.7512    299.91279 
  118000  0.028865358   -0.2560385  -0.84331214 0.0046871598    9.2367534    193.36558    212.30637   -2023048.4    20821.277   -2002227.1    3648.8783    299.37883 
  118500  0.027701475  -0.21044295  -0.64433674 -0.013919894    9.2367534    193.36558     212.0662   -2023529.5    20855.903   -2002673.6    2895.6653     299.8767 
  119000  0.025029841 0.0088963236 -0.037992607  0.016773369    9.2367534    193.36558    211.51491   -2023545.2    20819.699   -2002725.5    41.076379    299.35614 
  119500  0.022898328    0.1862506   0.37721532 -0.0063464727    9.2367534    193.36558    211.07507   -2023383.8    20886.036   -2002497.8   -1857.0649    300.30998 
  120000  0.022455866   0.21270175   0.67258827 -0.065740344    9.2367534    193.36558    210.98377   -2023046.9    20818.578   -2002228.3   -2731.8323    299.34003 
Loop time of 182.937 on 80 procs for 10000 steps with 23333 atoms

Performance: 4.723 ns/day, 5.082 hours/ns, 54.664 timesteps/s
99.7% CPU use with 80 MPI tasks x 1 OpenMP threads

MPI task timing breakdown:
Section |  min time  |  avg time  |  max time  |%varavg| %total
---------------------------------------------------------------
Pair    | 0.041119   | 31.072     | 45.361     | 330.7 | 16.98
Bond    | 0.0039673  | 0.4448     | 0.64595    |  38.3 |  0.24
Kspace  | 95.773     | 112.13     | 145.5      | 183.9 | 61.29
Neigh   | 1.9313     | 2.0642     | 2.2022     |   4.8 |  1.13
Comm    | 1.0971     | 4.2503     | 8.0189     |  82.5 |  2.32
Output  | 3.8233     | 3.8238     | 3.8242     |   0.0 |  2.09
Modify  | 26.523     | 28.075     | 29.476     |  15.1 | 15.35
Other   |            | 1.079      |            |       |  0.59

Nlocal:    291.663 ave 402 max 0 min
Histogram: 20 0 0 0 0 0 2 0 2 56
Nghost:    5620.81 ave 7715 max 1338 min
Histogram: 3 17 0 0 2 0 18 0 2 38
Neighs:    134983 ave 194751 max 0 min
Histogram: 20 0 0 1 0 1 1 1 18 38

Total # of neighbors = 10798660
Ave neighs/atom = 462.806
Ave special neighs/atom = 2.81833
Neighbor list builds = 373
Dangerous builds = 0
unfix 2
write_restart	restart.HAP1930eq1
PPPM initialization ...
  using 12-bit tables for long-range coulomb (../kspace.cpp:321)
  G vector (1/distance) = 0.296372
  grid = 27 225 240
  stencil order = 5
  estimated absolute RMS force accuracy = 0.000391826
  estimated relative force accuracy = 1.17997e-06
  using single precision FFTs
  3d grid and FFT values/proc = 42408 18792
write_data	dat.HAP1930eq1
PPPM initialization ...
  using 12-bit tables for long-range coulomb (../kspace.cpp:321)
  G vector (1/distance) = 0.296372
  grid = 27 225 240
  stencil order = 5
  estimated absolute RMS force accuracy = 0.000391826
  estimated relative force accuracy = 1.17997e-06
  using single precision FFTs
  3d grid and FFT values/proc = 42408 18792

#Break 2
fix             2 all nvt temp 300 300 10
fix 		3 all deform 1 z erate 0.000005 units box remap x #1 m/s
restart 	8000 restart.HAPtenz2
run             40000 #
PPPM initialization ...
  using 12-bit tables for long-range coulomb (../kspace.cpp:321)
  G vector (1/distance) = 0.296372
  grid = 27 225 240
  stencil order = 5
  estimated absolute RMS force accuracy = 0.000391826
  estimated relative force accuracy = 1.17997e-06
  using single precision FFTs
  3d grid and FFT values/proc = 42408 18792
Per MPI rank memory allocation (min/avg/max) = 16.55 | 17.76 | 18.31 Mbytes
Step v_strain v_sx v_sy v_sz Lx Ly Lz PotEng KinEng TotEng Press Temp 
  120000  0.022455866   0.21270181   0.67258836 -0.065740488    9.2367534    193.36558    210.98377   -2023046.9    20818.578   -2002228.3   -2731.8323    299.34003 
  120500  0.025012005   0.45414586   0.93835739   0.46795598    9.2367534    193.36558    211.51123   -2022943.7     20914.26   -2002029.5   -6201.5307     300.7158 
  121000  0.027568145   0.44498961   0.99694636   0.60181076    9.2367534    193.36558    212.03869   -2022824.5    20916.387   -2001908.1   -6812.4891    300.74637 
  121500  0.030124285   0.43337318   0.68572223   0.80048227    9.2367534    193.36558    212.56615   -2022988.3    20835.684   -2002152.6   -6398.5923    299.58598 
  122000  0.032680424    0.3580018   0.44349564    1.2241639    9.2367534    193.36558    213.09361   -2022860.5    20837.962   -2002022.5   -6752.2044    299.61873 
  122500  0.035236564   0.36589108  -0.06801022    1.7352104    9.2367534    193.36558    213.62106   -2022849.9    20820.409   -2002029.5   -6776.9709    299.36635 
  123000  0.037792704   0.10899467  -0.58537499    2.1064722    9.2367534    193.36558    214.14852   -2022365.6    20735.603     -2001630   -5433.6397    298.14697 
  123500  0.040348843   0.12540915  -0.93599062     2.408071    9.2367534    193.36558    214.67598   -2021910.2    20821.692   -2001088.5   -5324.9652    299.38479 
  124000  0.042904983   0.14975149  -0.98570614    2.8098257    9.2367534    193.36558    215.20344   -2021389.2    20796.158     -2000593   -6579.5701    299.01766 
  124500  0.045461123    0.3312086  -0.81680613    3.2552661    9.2367534    193.36558     215.7309   -2020701.5    20835.785   -1999865.7   -9232.2287    299.58744 
[...]
  207500  0.026480183  -0.10175423  -0.11177678  -0.64434613    9.2367534    193.36558    211.81419   -2021682.7    20851.229   -2000831.5    2859.5905    299.80949 
  208000  0.026630627 -0.084613076  0.040570051  -0.42957576    9.2367534    193.36558    211.84523   -2021147.7        20859   -2000288.7    1578.7293    299.92124 
  208500  0.026121095  -0.11760655  -0.10493047  -0.49666251    9.2367534    193.36558    211.74009   -2021350.8    20751.924   -2000598.9    2397.3318    298.38165 
  209000  0.024222478 -0.079318809  0.031724271  -0.66262741    9.2367534    193.36558    211.34831   -2021053.9    20930.275   -2000123.6    2367.4065    300.94606 
  209500  0.023818184  -0.04080982   0.27226137  -0.54135774    9.2367534    193.36558    211.26488   -2021176.3    20805.161   -2000371.2    1033.0206    299.14711 
  210000  0.023705092 -0.023999683    0.2471475  -0.75766308    9.2367534    193.36558    211.24155   -2021154.5    20750.316   -2000404.1    1781.7175    298.35851 
Loop time of 172.938 on 80 procs for 10000 steps with 23333 atoms

Performance: 4.996 ns/day, 4.804 hours/ns, 57.824 timesteps/s
99.7% CPU use with 80 MPI tasks x 1 OpenMP threads

MPI task timing breakdown:
Section |  min time  |  avg time  |  max time  |%varavg| %total
---------------------------------------------------------------
Pair    | 0.041497   | 31.092     | 45.631     | 330.9 | 17.98
Bond    | 0.0037193  | 0.44435    | 0.63867    |  38.3 |  0.26
Kspace  | 89.477     | 105.73     | 139.02     | 188.9 | 61.14
Neigh   | 2.0754     | 2.2117     | 2.3537     |   4.7 |  1.28
Comm    | 1.0983     | 4.0013     | 7.1721     |  74.4 |  2.31
Output  | 0.78017    | 0.7803     | 0.78036    |   0.0 |  0.45
Modify  | 26.231     | 27.517     | 28.721     |  12.9 | 15.91
Other   |            | 1.16       |            |       |  0.67

Nlocal:    291.663 ave 404 max 0 min
Histogram: 20 0 0 0 0 1 1 0 3 55
Nghost:    5599.57 ave 7682 max 1327 min
Histogram: 2 18 0 0 2 0 18 0 2 38
Neighs:    135269 ave 197468 max 0 min
Histogram: 20 0 0 1 0 1 1 1 18 38

Total # of neighbors = 10821508
Ave neighs/atom = 463.786
Ave special neighs/atom = 2.81833
Neighbor list builds = 400
Dangerous builds = 0
unfix 2
write_restart	restart.HAP1930sint21
PPPM initialization ...
  using 12-bit tables for long-range coulomb (../kspace.cpp:321)
  G vector (1/distance) = 0.296349
  grid = 27 225 240
  stencil order = 5
  estimated absolute RMS force accuracy = 0.00039236
  estimated relative force accuracy = 1.18158e-06
  using single precision FFTs
  3d grid and FFT values/proc = 42408 18792

fix 		2 all npt temp 300 300 10 z 6513.69 6513.69 1000
run 10000
PPPM initialization ...
  using 12-bit tables for long-range coulomb (../kspace.cpp:321)
  G vector (1/distance) = 0.296349
  grid = 27 225 240
  stencil order = 5
  estimated absolute RMS force accuracy = 0.00039236
  estimated relative force accuracy = 1.18158e-06
  using single precision FFTs
  3d grid and FFT values/proc = 42408 18792
Per MPI rank memory allocation (min/avg/max) = 16.55 | 17.77 | 18.31 Mbytes
Step v_strain v_sx v_sy v_sz Lx Ly Lz PotEng KinEng TotEng Press Temp 
  210000  0.023705092 -0.023999721   0.24714744  -0.75766302    9.2367534    193.36558    211.24155   -2021154.5    20750.316   -2000404.1    1781.7177    298.35851 
  210500  0.025520136 -0.035655624   0.17603446  -0.53903337    9.2367534    193.36558    211.61608     -2021236    20784.663   -2000451.4    1328.8485    298.85238 
  211000  0.026486977  -0.09554478 0.0093145987  -0.65107199    9.2367534    193.36558    211.81559   -2021503.3    20989.141   -2000514.1    2457.6739    301.79247 
  211500   0.02628632 -0.027665768    0.1245504  -0.62105166    9.2367534    193.36558    211.77418   -2021392.6    21034.319   -2000358.2    1747.2235    302.44206 
  212000  0.026330777 -0.091527782 -0.036673974  -0.45350642    9.2367534    193.36558    211.78336     -2021383     20965.67   -2000417.3    1939.0272      301.455 
  212500   0.02388541  -0.18858376  -0.22324774  -0.75975031    9.2367534    193.36558    211.27875   -2021477.4     20681.36     -2000796    3905.2727    297.36704 
  213000  0.024634599  -0.14781305  -0.21245436  -0.47585356    9.2367534    193.36558    211.43335   -2021294.7    20627.555   -2000667.2    2787.0699    296.59341 
  213500  0.023592343  -0.12388311   -0.2147788  -0.84002378    9.2367534    193.36558    211.21828     -2021263     20967.33   -2000295.7    3928.9523    301.47886 
  214000  0.024738552 -0.088371438 -0.048746473  -0.66421523    9.2367534    193.36558     211.4548   -2021583.6    20846.632   -2000736.9    2671.1105    299.74339 
  214500  0.025916538  -0.17477922  -0.11247763  -0.68118286    9.2367534    193.36558    211.69788   -2021425.1    20743.753   -2000681.3    3228.1324    298.26415 
  215000  0.026404676  -0.04111509   0.10172565  -0.64045067    9.2367534    193.36558     211.7986   -2021407.1    20845.396   -2000561.7    1932.8004    299.72562 
  215500  0.025469883  0.013535788   0.13699297  -0.69953845    9.2367534    193.36558    211.60571   -2021351.6    21030.641   -2000320.9    1830.0323    302.38918 
  216000  0.024739664  0.023048668   0.31615307  -0.53795566    9.2367534    193.36558    211.45503   -2021294.3    21036.844   -2000257.5    662.51308    302.47836 
  216500  0.024081772  -0.10064097   0.15467635  -0.73632447    9.2367534    193.36558    211.31927   -2021356.9    20777.502   -2000579.4     2274.297    298.74941 
  217000  0.024286304  -0.07856229   0.15318755  -0.57556643    9.2367534    193.36558    211.36148   -2021305.7    20956.013   -2000349.7    1669.8039    301.31614 
  217500  0.024589852 -0.086045373  0.066544314  -0.64119417    9.2367534    193.36558    211.42412   -2021334.8    20948.826     -2000386    2202.3174    301.21279 
  218000  0.025308578  -0.19829332   -0.1927919  -0.72871451    9.2367534    193.36558    211.57243   -2021288.1    20800.561   -2000487.5    3732.6657    299.08098 
  218500   0.02540468  -0.18210939  -0.15223101  -0.59238579    9.2367534    193.36558    211.59226   -2021539.8    20976.857   -2000562.9    3089.0873    301.61585 
  219000  0.024966364  -0.14429745   -0.2083414  -0.70906913    9.2367534    193.36558    211.50181   -2021635.3    20818.702   -2000816.5    3539.0266    299.34181 
  219500   0.02547528  -0.12380437 0.0086371892  -0.55317127    9.2367534    193.36558    211.60682   -2021280.6    20877.788   -2000402.9    2227.7948    300.19137 
  220000  0.025172186  -0.12600868  -0.15862458  -0.72064499    9.2367534    193.36558    211.54428   -2021322.4    20728.379     -2000594    3350.9275    298.04309 
Loop time of 172.509 on 80 procs for 10000 steps with 23333 atoms

Performance: 5.008 ns/day, 4.792 hours/ns, 57.968 timesteps/s
99.7% CPU use with 80 MPI tasks x 1 OpenMP threads

MPI task timing breakdown:
Section |  min time  |  avg time  |  max time  |%varavg| %total
---------------------------------------------------------------
Pair    | 0.041831   | 31.096     | 45.965     | 330.7 | 18.03
Bond    | 0.0036943  | 0.44497    | 0.64373    |  38.3 |  0.26
Kspace  | 89.092     | 105.14     | 138.51     | 189.7 | 60.95
Neigh   | 2.0506     | 2.2091     | 2.3562     |   5.0 |  1.28
Comm    | 1.102      | 4.0941     | 7.5425     |  76.7 |  2.37
Output  | 0.76307    | 0.76324    | 0.76334    |   0.0 |  0.44
Modify  | 26.175     | 27.51      | 28.707     |  13.0 | 15.95
Other   |            | 1.255      |            |       |  0.73

Nlocal:    291.663 ave 404 max 0 min
Histogram: 20 0 0 0 0 2 0 0 3 55
Nghost:    5586.55 ave 7674 max 1296 min
Histogram: 4 16 0 0 2 0 18 0 2 38
Neighs:    135478 ave 198832 max 0 min
Histogram: 20 0 0 1 0 1 1 1 18 38

Total # of neighbors = 10838220
Ave neighs/atom = 464.502
Ave special neighs/atom = 2.81833
Neighbor list builds = 393
Dangerous builds = 0
unfix 2
write_restart	restart.HAP1930sint22
PPPM initialization ...
  using 12-bit tables for long-range coulomb (../kspace.cpp:321)
  G vector (1/distance) = 0.296323
  grid = 27 225 240
  stencil order = 5
  estimated absolute RMS force accuracy = 0.000392993
  estimated relative force accuracy = 1.18349e-06
  using single precision FFTs
  3d grid and FFT values/proc = 42408 18792

fix 		2 all npt temp 300 300 10 z 6513.69 1 1000
run 10000
PPPM initialization ...
  using 12-bit tables for long-range coulomb (../kspace.cpp:321)
  G vector (1/distance) = 0.296323
  grid = 27 225 240
  stencil order = 5
  estimated absolute RMS force accuracy = 0.000392993
  estimated relative force accuracy = 1.18349e-06
  using single precision FFTs
  3d grid and FFT values/proc = 42408 18792
Per MPI rank memory allocation (min/avg/max) = 16.55 | 17.77 | 18.31 Mbytes
Step v_strain v_sx v_sy v_sz Lx Ly Lz PotEng KinEng TotEng Press Temp 
  220000  0.025172186  -0.12600873  -0.15862468   -0.7206449    9.2367534    193.36558    211.54428   -2021322.4    20728.379     -2000594    3350.9277    298.04309 
  220500  0.026139517  -0.13819015 -0.029897903  -0.50091246    9.2367534    193.36558    211.74389   -2021291.2     20921.66   -2000369.5    2230.0017    300.82219 
  221000  0.025563363  -0.09929024   0.02537512  -0.71301733    9.2367534    193.36558      211.625   -2021481.6    20867.196   -2000614.4    2623.1082    300.03908 
  221500  0.025401984  0.062990721   0.15783035  -0.56822394    9.2367534    193.36558     211.5917   -2021156.1    20905.576   -2000250.6    1158.0096    300.59093 
  222000  0.024737582 -0.064580118   0.23122831  -0.52097297    9.2367534    193.36558     211.4546     -2021234    21072.861   -2000161.1    1181.0826    302.99623 
  222500  0.024547189  0.056136922  0.069898152  -0.58432086    9.2367534    193.36558    211.41531   -2021425.4     20784.02   -2000641.4    1527.6193    298.84314 
  223000  0.024615824 -0.064709908   0.23962181  -0.45797291    9.2367534    193.36558    211.42948   -2021322.8    20854.353   -2000468.4    943.53671    299.85442 
  223500  0.026388946 0.0081376489   0.11910911  -0.37695371    9.2367534    193.36558    211.79536   -2021347.5    20666.901   -2000680.5     832.3565    297.15914 
  224000  0.027200634  -0.10594053 0.0060310173  -0.45727215    9.2367534    193.36558    211.96285   -2021405.3    20765.647   -2000639.7    1857.2722    298.57896 
  224500    0.0288347   -0.1200835  -0.17594698  -0.23081405    9.2367534    193.36558    212.30004   -2021462.5    20892.095   -2000570.4    1756.1484     300.3971 
  225000  0.028145547 -0.043989591  -0.10126207  -0.29435952    9.2367534    193.36558    212.15783   -2021664.3    20903.452   -2000760.9    1465.3706    300.56039 
  225500  0.026935958  -0.13076716   -0.1141018  -0.28258917    9.2367534    193.36558    211.90823   -2021378.3    20857.884   -2000520.5    1758.1938    299.90519 
  226000  0.026131892  -0.01581025  -0.20714458  -0.19576037    9.2367534    193.36558    211.74232   -2021256.8     20812.26   -2000444.6    1395.7173    299.24919 
  226500  0.025839813  -0.14596152 -0.079456581  -0.32542976    9.2367534    193.36558    211.68205   -2021268.9    20914.189   -2000354.7    1836.1596    300.71477 
  227000  0.026904593 -0.0062826456  0.013670519  -0.20550169    9.2367534    193.36558    211.90176   -2021273.5    20897.149   -2000376.3    660.37938    300.46976 
  227500  0.027686265  0.029534671   0.16854094  -0.16529915    9.2367534    193.36558    212.06306   -2021170.2    20950.491   -2000219.7   -109.25489    301.23674 
  228000   0.02884768  0.025035771   0.21188681 -0.087086781    9.2367534    193.36558    212.30272   -2021330.4    20668.392     -2000662   -499.45266    297.18057 
  228500  0.028580096    0.1094652   0.16115755  -0.17296267    9.2367534    193.36558     212.2475   -2021214.7    20939.915   -2000274.8   -325.53362    301.08467 
  229000  0.028428083  0.062899484   0.28087528  0.036219612    9.2367534    193.36558    212.21613   -2021244.9    20773.685   -2000471.2   -1266.6479    298.69454 
  229500  0.027916917  0.076931145   0.10510618 -0.056455804    9.2367534    193.36558    212.11066   -2021372.8     20775.37   -2000597.4   -418.60506    298.71876 
  230000  0.028089218  0.070010102 0.0016439165   0.10460567    9.2367534    193.36558    212.14621   -2021225.5    20975.185   -2000250.3    -587.5323     301.5918 
Loop time of 172.864 on 80 procs for 10000 steps with 23333 atoms

Performance: 4.998 ns/day, 4.802 hours/ns, 57.849 timesteps/s
99.7% CPU use with 80 MPI tasks x 1 OpenMP threads

MPI task timing breakdown:
Section |  min time  |  avg time  |  max time  |%varavg| %total
---------------------------------------------------------------
Pair    | 0.040399   | 31.086     | 45.889     | 330.9 | 17.98
Bond    | 0.0036623  | 0.44409    | 0.64254    |  38.3 |  0.26
Kspace  | 89.614     | 105.81     | 139.11     | 188.8 | 61.21
Neigh   | 1.8775     | 1.9969     | 2.1176     |   4.2 |  1.16
Comm    | 1.0999     | 4.0482     | 7.3886     |  76.1 |  2.34
Output  | 0.69728    | 0.69741    | 0.69749    |   0.0 |  0.40
Modify  | 26.236     | 27.616     | 28.893     |  13.7 | 15.98
Other   |            | 1.161      |            |       |  0.67

Nlocal:    291.663 ave 411 max 0 min
Histogram: 20 0 0 0 0 2 0 0 3 55
Nghost:    5589.49 ave 7722 max 1301 min
Histogram: 4 16 0 0 2 0 18 0 2 38
Neighs:    135140 ave 196011 max 0 min
Histogram: 20 0 0 1 0 1 2 0 18 38

Total # of neighbors = 10811231
Ave neighs/atom = 463.345
Ave special neighs/atom = 2.81833
Neighbor list builds = 362
Dangerous builds = 0
unfix 2
write_restart	restart.HAP1930sint23
PPPM initialization ...
  using 12-bit tables for long-range coulomb (../kspace.cpp:321)
  G vector (1/distance) = 0.29627
  grid = 27 225 240
  stencil order = 5
  estimated absolute RMS force accuracy = 0.000394268
  estimated relative force accuracy = 1.18733e-06
  using single precision FFTs
  3d grid and FFT values/proc = 42408 18792

fix 		2 all npt temp 300 300 10 z 1 1 1000
run 10000
PPPM initialization ...
  using 12-bit tables for long-range coulomb (../kspace.cpp:321)
  G vector (1/distance) = 0.29627
  grid = 27 225 240
  stencil order = 5
  estimated absolute RMS force accuracy = 0.000394268
  estimated relative force accuracy = 1.18733e-06
  using single precision FFTs
  3d grid and FFT values/proc = 42408 18792
Per MPI rank memory allocation (min/avg/max) = 16.55 | 17.77 | 18.31 Mbytes
Step v_strain v_sx v_sy v_sz Lx Ly Lz PotEng KinEng TotEng Press Temp 
  230000  0.028089218  0.070009997 0.0016437144   0.10460589    9.2367534    193.36558    212.14621   -2021225.5    20975.185   -2000250.3   -587.53201     301.5918 
  230500  0.028521967  -0.20946375  -0.18784623 -0.036754074    9.2367534    193.36558    212.23551   -2021229.4    20836.609   -2000392.8    1446.8802    299.59928 
  231000  0.028646982  -0.05596517  -0.33754625 -0.0072736437    9.2367534    193.36558     212.2613   -2021324.2    20858.898   -2000465.3    1335.9502    299.91976 
  231500  0.029054694  -0.14627039  -0.22379121 -0.026919545    9.2367534    193.36558    212.34544   -2021476.9    20885.729   -2000591.2    1323.2705    300.30556 
  232000  0.028624731 -0.025368405  -0.14785264  -0.03976737    9.2367534    193.36558    212.25671   -2021436.2    20991.907   -2000444.3    709.96138    301.83224 
  232500  0.028316897 -0.0064290835 -0.053927649  0.030569684    9.2367534    193.36558    212.19319   -2021354.7    20691.072   -2000663.6    99.290163    297.50668 
  233000  0.028567077  0.020891987   0.14091452  -0.13449611    9.2367534    193.36558    212.24482   -2021328.8    20833.533   -2000495.3   -91.034656    299.55506 
  233500  0.029024305   0.14098212    0.1679557  0.057585315    9.2367534    193.36558    212.33917   -2021190.4     20844.47   -2000345.9   -1221.7438    299.71231 
  234000  0.029089937  0.028081395   0.21354424 -0.033161455    9.2367534    193.36558    212.35271   -2021288.3    21096.838   -2000191.5    -694.8806    303.34099 
  234500  0.028541788   0.17761689   0.19273226  0.025793418    9.2367534    193.36558     212.2396   -2021487.8    20803.958   -2000683.8   -1320.4752    299.12981 
  235000  0.028173515   0.09722256   0.16671364   0.10126903    9.2367534    193.36558     212.1636     -2021272    20704.316   -2000567.6   -1217.3508    297.69712 
  235500  0.027202363  0.071666236   0.12976402 -0.070086573    9.2367534    193.36558    211.96321   -2021373.7    20863.205   -2000510.5   -437.81229     299.9817 
  236000  0.027732675  0.045626599  0.034728498   0.11163087    9.2367534    193.36558    212.07264   -2021531.7    20845.944   -2000685.7   -639.95323    299.73351 
  236500   0.02849376 -0.073843442 -0.097649422 -0.025735972    9.2367534    193.36558    212.22969   -2021361.8     21072.07   -2000289.7    657.42945    302.98486 
  237000  0.029424342 -0.036369407  -0.21425234 -0.043721955    9.2367534    193.36558    212.42171   -2021374.5    20775.079   -2000599.4    981.14568    298.71457 
  237500  0.030541389  -0.04817374  -0.16924599  0.029034727    9.2367534    193.36558    212.65222   -2021309.8     20900.72   -2000409.1    627.95001    300.52111 
  238000  0.029645331   -0.1154875  -0.16625837 -0.053624704    9.2367534    193.36558    212.46731   -2021450.6    20928.559     -2000522    1117.9019    300.92138 
  238500  0.029205939  0.034446893 -0.081029905 0.0016116291    9.2367534    193.36558    212.37665   -2021505.3    20830.314   -2000674.9    149.90461    299.50877 
  239000  0.027476335  0.061056321  0.023682201 -0.018019633    9.2367534    193.36558    212.01974   -2021440.1    20679.859   -2000760.2    -222.3963    297.34545 
  239500  0.027216714  0.070936163  0.094055999 -0.052661008    9.2367534    193.36558    211.96617   -2021343.1    20914.886   -2000428.3   -374.43718    300.72478 
  240000  0.027334195 -0.057307753   0.16585294 -0.032240441    9.2367534    193.36558    211.99041   -2021409.3    20690.245     -2000719   -254.34914    297.49479 
Loop time of 164.368 on 80 procs for 10000 steps with 23333 atoms

Performance: 5.257 ns/day, 4.566 hours/ns, 60.839 timesteps/s
99.8% CPU use with 80 MPI tasks x 1 OpenMP threads

MPI task timing breakdown:
Section |  min time  |  avg time  |  max time  |%varavg| %total
---------------------------------------------------------------
Pair    | 0.040655   | 31.047     | 45.566     | 330.9 | 18.89
Bond    | 0.0037386  | 0.44452    | 0.63763    |  38.3 |  0.27
Kspace  | 82.265     | 98.106     | 131.13     | 195.1 | 59.69
Neigh   | 1.9815     | 2.1093     | 2.2393     |   4.4 |  1.28
Comm    | 1.1122     | 3.6279     | 6.4728     |  69.9 |  2.21
Output  | 0.75653    | 0.75667    | 0.75674    |   0.0 |  0.46
Modify  | 26.029     | 27.219     | 28.297     |  11.8 | 16.56
Other   |            | 1.057      |            |       |  0.64

Nlocal:    291.663 ave 411 max 0 min
Histogram: 20 0 0 0 0 2 0 0 3 55
Nghost:    5598.91 ave 7735 max 1299 min
Histogram: 2 18 0 0 2 0 18 0 2 38
Neighs:    135078 ave 196705 max 0 min
Histogram: 20 0 0 1 0 1 2 0 18 38

Total # of neighbors = 10806213
Ave neighs/atom = 463.13
Ave special neighs/atom = 2.81833
Neighbor list builds = 386
Dangerous builds = 0
unfix 2
write_restart	restart.HAP1930eq2
PPPM initialization ...
  using 12-bit tables for long-range coulomb (../kspace.cpp:321)
  G vector (1/distance) = 0.296284
  grid = 27 225 240
  stencil order = 5
  estimated absolute RMS force accuracy = 0.000393936
  estimated relative force accuracy = 1.18633e-06
  using single precision FFTs
  3d grid and FFT values/proc = 42408 18792
write_data	dat.HAP1930eq2
PPPM initialization ...
  using 12-bit tables for long-range coulomb (../kspace.cpp:321)
  G vector (1/distance) = 0.296284
  grid = 27 225 240
  stencil order = 5
  estimated absolute RMS force accuracy = 0.000393936
  estimated relative force accuracy = 1.18633e-06
  using single precision FFTs
  3d grid and FFT values/proc = 42408 18792



Total wall time: 1:20:38
