ITEM: TIMESTEP
0
ITEM: NUMBER OF ATOMS
10530
ITEM: BOX BOUNDS pp pp pp
0.0000000000000000e+00 9.3000000000000007e+00
0.0000000000000000e+00 5.5800000000000004e+01
0.0000000000000000e+00 2.0150000000000000e+02
ITEM: ATOMS id type xs ys zs
3 1 0.166667 0.0131453 0.0103095
165 1 0.166667 0.0131453 0.0256941
12 1 0.166667 0.0687009 0.0103095
174 1 0.166667 0.0687009 0.0256941
21 1 0.166667 0.124256 0.0103095
183 1 0.166667 0.124256 0.0256941
6 1 0.5 0.0131453 0.0103095
168 1 0.5 0.0131453 0.0256941
15 1 0.5 0.0687009 0.0103095
177 1 0.5 0.0687009 0.0256941
24 1 0.5 0.124256 0.0103095
186 1 0.5 0.124256 0.0256941
9 1 0.833333 0.0131453 0.0103095
171 1 0.833333 0.0131453 0.0256941
18 1 0.833333 0.0687009 0.0103095
180 1 0.833333 0.0687009 0.0256941
27 1 0.833333 0.124256 0.0103095
189 1 0.833333 0.124256 0.0256941
1 2 0.166667 0.0277778 0.00744417
163 2 0.166667 0.0277778 0.0228288
10 2 0.166667 0.0833333 0.00744417
172 2 0.166667 0.0833333 0.0228288
4 2 0.5 0.0277778 0.00744417
166 2 0.5 0.0277778 0.0228288
13 2 0.5 0.0833333 0.00744417
175 2 0.5 0.0833333 0.0228288
7 2 0.833333 0.0277778 0.00744417
169 2 0.833333 0.0277778 0.0228288
16 2 0.833333 0.0833333 0.00744417
178 2 0.833333 0.0833333 0.0228288
2 1 0.166667 0.0424102 0.0103095
164 1 0.166667 0.0424102 0.0256941
11 1 0.166667 0.0979658 0.0103095
173 1 0.166667 0.0979658 0.0256941
5 1 0.5 0.0424102 0.0103095
167 1 0.5 0.0424102 0.0256941
14 1 0.5 0.0979658 0.0103095
176 1 0.5 0.0979658 0.0256941
8 1 0.833333 0.0424102 0.0103095
170 1 0.833333 0.0424102 0.0256941
17 1 0.833333 0.0979658 0.0103095
179 1 0.833333 0.0979658 0.0256941
30 1 0.166667 0.179812 0.0103095
192 1 0.166667 0.179812 0.0256941
39 1 0.166667 0.235368 0.0103095
201 1 0.166667 0.235368 0.0256941
33 1 0.5 0.179812 0.0103095
195 1 0.5 0.179812 0.0256941
42 1 0.5 0.235368 0.0103095
204 1 0.5 0.235368 0.0256941
36 1 0.833333 0.179812 0.0103095
198 1 0.833333 0.179812 0.0256941
45 1 0.833333 0.235368 0.0103095
207 1 0.833333 0.235368 0.0256941
19 2 0.166667 0.138889 0.00744417
181 2 0.166667 0.138889 0.0228288
28 2 0.166667 0.194444 0.00744417
190 2 0.166667 0.194444 0.0228288
22 2 0.5 0.138889 0.00744417
184 2 0.5 0.138889 0.0228288
31 2 0.5 0.194444 0.00744417
193 2 0.5 0.194444 0.0228288
25 2 0.833333 0.138889 0.00744417
187 2 0.833333 0.138889 0.0228288
34 2 0.833333 0.194444 0.00744417
196 2 0.833333 0.194444 0.0228288
20 1 0.166667 0.153521 0.0103095
182 1 0.166667 0.153521 0.0256941
29 1 0.166667 0.209077 0.0103095
191 1 0.166667 0.209077 0.0256941
23 1 0.5 0.153521 0.0103095
185 1 0.5 0.153521 0.0256941
32 1 0.5 0.209077 0.0103095
194 1 0.5 0.209077 0.0256941
26 1 0.833333 0.153521 0.0103095
188 1 0.833333 0.153521 0.0256941
35 1 0.833333 0.209077 0.0103095
197 1 0.833333 0.209077 0.0256941
48 1 0.166667 0.290923 0.0103095
210 1 0.166667 0.290923 0.0256941
57 1 0.166667 0.346479 0.0103095
219 1 0.166667 0.346479 0.0256941
51 1 0.5 0.290923 0.0103095
213 1 0.5 0.290923 0.0256941
60 1 0.5 0.346479 0.0103095
222 1 0.5 0.346479 0.0256941
54 1 0.833333 0.290923 0.0103095
216 1 0.833333 0.290923 0.0256941
63 1 0.833333 0.346479 0.0103095
225 1 0.833333 0.346479 0.0256941
37 2 0.166667 0.25 0.00744417
199 2 0.166667 0.25 0.0228288
46 2 0.166667 0.305556 0.00744417
208 2 0.166667 0.305556 0.0228288
55 2 0.166667 0.361111 0.00744417
217 2 0.166667 0.361111 0.0228288
40 2 0.5 0.25 0.00744417
202 2 0.5 0.25 0.0228288
49 2 0.5 0.305556 0.00744417
211 2 0.5 0.305556 0.0228288
58 2 0.5 0.361111 0.00744417
220 2 0.5 0.361111 0.0228288
43 2 0.833333 0.25 0.00744417
205 2 0.833333 0.25 0.0228288
52 2 0.833333 0.305556 0.00744417
214 2 0.833333 0.305556 0.0228288
61 2 0.833333 0.361111 0.00744417
223 2 0.833333 0.361111 0.0228288
38 1 0.166667 0.264632 0.0103095
200 1 0.166667 0.264632 0.0256941
47 1 0.166667 0.320188 0.0103095
209 1 0.166667 0.320188 0.0256941
41 1 0.5 0.264632 0.0103095
203 1 0.5 0.264632 0.0256941
50 1 0.5 0.320188 0.0103095
212 1 0.5 0.320188 0.0256941
44 1 0.833333 0.264632 0.0103095
206 1 0.833333 0.264632 0.0256941
53 1 0.833333 0.320188 0.0103095
215 1 0.833333 0.320188 0.0256941
66 1 0.166667 0.402034 0.0103095
228 1 0.166667 0.402034 0.0256941
75 1 0.166667 0.45759 0.0103095
237 1 0.166667 0.45759 0.0256941
69 1 0.5 0.402034 0.0103095
231 1 0.5 0.402034 0.0256941
78 1 0.5 0.45759 0.0103095
240 1 0.5 0.45759 0.0256941
72 1 0.833333 0.402034 0.0103095
234 1 0.833333 0.402034 0.0256941
81 1 0.833333 0.45759 0.0103095
243 1 0.833333 0.45759 0.0256941
64 2 0.166667 0.416667 0.00744417
226 2 0.166667 0.416667 0.0228288
73 2 0.166667 0.472222 0.00744417
235 2 0.166667 0.472222 0.0228288
67 2 0.5 0.416667 0.00744417
229 2 0.5 0.416667 0.0228288
76 2 0.5 0.472222 0.00744417
238 2 0.5 0.472222 0.0228288
70 2 0.833333 0.416667 0.00744417
232 2 0.833333 0.416667 0.0228288
79 2 0.833333 0.472222 0.00744417
241 2 0.833333 0.472222 0.0228288
56 1 0.166667 0.375744 0.0103095
218 1 0.166667 0.375744 0.0256941
65 1 0.166667 0.431299 0.0103095
227 1 0.166667 0.431299 0.0256941
74 1 0.166667 0.486855 0.0103095
236 1 0.166667 0.486855 0.0256941
59 1 0.5 0.375744 0.0103095
221 1 0.5 0.375744 0.0256941
68 1 0.5 0.431299 0.0103095
230 1 0.5 0.431299 0.0256941
77 1 0.5 0.486855 0.0103095
239 1 0.5 0.486855 0.0256941
62 1 0.833333 0.375744 0.0103095
224 1 0.833333 0.375744 0.0256941
71 1 0.833333 0.431299 0.0103095
233 1 0.833333 0.431299 0.0256941
80 1 0.833333 0.486855 0.0103095
242 1 0.833333 0.486855 0.0256941
327 1 0.166667 0.0131453 0.0410787
489 1 0.166667 0.0131453 0.0564633
336 1 0.166667 0.0687009 0.0410787
498 1 0.166667 0.0687009 0.0564633
345 1 0.166667 0.124256 0.0410787
507 1 0.166667 0.124256 0.0564633
330 1 0.5 0.0131453 0.0410787
492 1 0.5 0.0131453 0.0564633
339 1 0.5 0.0687009 0.0410787
501 1 0.5 0.0687009 0.0564633
348 1 0.5 0.124256 0.0410787
510 1 0.5 0.124256 0.0564633
333 1 0.833333 0.0131453 0.0410787
495 1 0.833333 0.0131453 0.0564633
342 1 0.833333 0.0687009 0.0410787
504 1 0.833333 0.0687009 0.0564633
351 1 0.833333 0.124256 0.0410787
513 1 0.833333 0.124256 0.0564633
325 2 0.166667 0.0277778 0.0382134
487 2 0.166667 0.0277778 0.053598
334 2 0.166667 0.0833333 0.0382134
496 2 0.166667 0.0833333 0.053598
328 2 0.5 0.0277778 0.0382134
490 2 0.5 0.0277778 0.053598
337 2 0.5 0.0833333 0.0382134
499 2 0.5 0.0833333 0.053598
331 2 0.833333 0.0277778 0.0382134
493 2 0.833333 0.0277778 0.053598
340 2 0.833333 0.0833333 0.0382134
502 2 0.833333 0.0833333 0.053598
326 1 0.166667 0.0424102 0.0410787
488 1 0.166667 0.0424102 0.0564633
335 1 0.166667 0.0979658 0.0410787
497 1 0.166667 0.0979658 0.0564633
329 1 0.5 0.0424102 0.0410787
491 1 0.5 0.0424102 0.0564633
338 1 0.5 0.0979658 0.0410787
500 1 0.5 0.0979658 0.0564633
332 1 0.833333 0.0424102 0.0410787
494 1 0.833333 0.0424102 0.0564633
341 1 0.833333 0.0979658 0.0410787
503 1 0.833333 0.0979658 0.0564633
354 1 0.166667 0.179812 0.0410787
516 1 0.166667 0.179812 0.0564633
363 1 0.166667 0.235368 0.0410787
525 1 0.166667 0.235368 0.0564633
357 1 0.5 0.179812 0.0410787
519 1 0.5 0.179812 0.0564633
366 1 0.5 0.235368 0.0410787
528 1 0.5 0.235368 0.0564633
360 1 0.833333 0.179812 0.0410787
522 1 0.833333 0.179812 0.0564633
369 1 0.833333 0.235368 0.0410787
531 1 0.833333 0.235368 0.0564633
343 2 0.166667 0.138889 0.0382134
505 2 0.166667 0.138889 0.053598
352 2 0.166667 0.194444 0.0382134
514 2 0.166667 0.194444 0.053598
346 2 0.5 0.138889 0.0382134
508 2 0.5 0.138889 0.053598
355 2 0.5 0.194444 0.0382134
517 2 0.5 0.194444 0.053598
349 2 0.833333 0.138889 0.0382134
511 2 0.833333 0.138889 0.053598
358 2 0.833333 0.194444 0.0382134
520 2 0.833333 0.194444 0.053598
344 1 0.166667 0.153521 0.0410787
506 1 0.166667 0.153521 0.0564633
353 1 0.166667 0.209077 0.0410787
515 1 0.166667 0.209077 0.0564633
347 1 0.5 0.153521 0.0410787
509 1 0.5 0.153521 0.0564633
356 1 0.5 0.209077 0.0410787
518 1 0.5 0.209077 0.0564633
350 1 0.833333 0.153521 0.0410787
512 1 0.833333 0.153521 0.0564633
359 1 0.833333 0.209077 0.0410787
521 1 0.833333 0.209077 0.0564633
372 1 0.166667 0.290923 0.0410787
534 1 0.166667 0.290923 0.0564633
381 1 0.166667 0.346479 0.0410787
543 1 0.166667 0.346479 0.0564633
375 1 0.5 0.290923 0.0410787
537 1 0.5 0.290923 0.0564633
384 1 0.5 0.346479 0.0410787
546 1 0.5 0.346479 0.0564633
378 1 0.833333 0.290923 0.0410787
540 1 0.833333 0.290923 0.0564633
387 1 0.833333 0.346479 0.0410787
549 1 0.833333 0.346479 0.0564633
361 2 0.166667 0.25 0.0382134
523 2 0.166667 0.25 0.053598
370 2 0.166667 0.305556 0.0382134
532 2 0.166667 0.305556 0.053598
379 2 0.166667 0.361111 0.0382134
541 2 0.166667 0.361111 0.053598
364 2 0.5 0.25 0.0382134
526 2 0.5 0.25 0.053598
373 2 0.5 0.305556 0.0382134
535 2 0.5 0.305556 0.053598
382 2 0.5 0.361111 0.0382134
544 2 0.5 0.361111 0.053598
367 2 0.833333 0.25 0.0382134
529 2 0.833333 0.25 0.053598
376 2 0.833333 0.305556 0.0382134
538 2 0.833333 0.305556 0.053598
385 2 0.833333 0.361111 0.0382134
547 2 0.833333 0.361111 0.053598
362 1 0.166667 0.264632 0.0410787
524 1 0.166667 0.264632 0.0564633
371 1 0.166667 0.320188 0.0410787
533 1 0.166667 0.320188 0.0564633
365 1 0.5 0.264632 0.0410787
527 1 0.5 0.264632 0.0564633
374 1 0.5 0.320188 0.0410787
536 1 0.5 0.320188 0.0564633
368 1 0.833333 0.264632 0.0410787
530 1 0.833333 0.264632 0.0564633
377 1 0.833333 0.320188 0.0410787
539 1 0.833333 0.320188 0.0564633
390 1 0.166667 0.402034 0.0410787
552 1 0.166667 0.402034 0.0564633
399 1 0.166667 0.45759 0.0410787
561 1 0.166667 0.45759 0.0564633
393 1 0.5 0.402034 0.0410787
555 1 0.5 0.402034 0.0564633
402 1 0.5 0.45759 0.0410787
564 1 0.5 0.45759 0.0564633
396 1 0.833333 0.402034 0.0410787
558 1 0.833333 0.402034 0.0564633
405 1 0.833333 0.45759 0.0410787
567 1 0.833333 0.45759 0.0564633
388 2 0.166667 0.416667 0.0382134
550 2 0.166667 0.416667 0.053598
397 2 0.166667 0.472222 0.0382134
559 2 0.166667 0.472222 0.053598
391 2 0.5 0.416667 0.0382134
553 2 0.5 0.416667 0.053598
400 2 0.5 0.472222 0.0382134
562 2 0.5 0.472222 0.053598
394 2 0.833333 0.416667 0.0382134
556 2 0.833333 0.416667 0.053598
403 2 0.833333 0.472222 0.0382134
565 2 0.833333 0.472222 0.053598
380 1 0.166667 0.375744 0.0410787
542 1 0.166667 0.375744 0.0564633
389 1 0.166667 0.431299 0.0410787
551 1 0.166667 0.431299 0.0564633
398 1 0.166667 0.486855 0.0410787
560 1 0.166667 0.486855 0.0564633
383 1 0.5 0.375744 0.0410787
545 1 0.5 0.375744 0.0564633
392 1 0.5 0.431299 0.0410787
554 1 0.5 0.431299 0.0564633
401 1 0.5 0.486855 0.0410787
563 1 0.5 0.486855 0.0564633
386 1 0.833333 0.375744 0.0410787
548 1 0.833333 0.375744 0.0564633
395 1 0.833333 0.431299 0.0410787
557 1 0.833333 0.431299 0.0564633
404 1 0.833333 0.486855 0.0410787
566 1 0.833333 0.486855 0.0564633
651 1 0.166667 0.0131453 0.0718479
813 1 0.166667 0.0131453 0.0872326
660 1 0.166667 0.0687009 0.0718479
822 1 0.166667 0.0687009 0.0872326
669 1 0.166667 0.124256 0.0718479
831 1 0.166667 0.124256 0.0872326
654 1 0.5 0.0131453 0.0718479
816 1 0.5 0.0131453 0.0872326
663 1 0.5 0.0687009 0.0718479
825 1 0.5 0.0687009 0.0872326
672 1 0.5 0.124256 0.0718479
834 1 0.5 0.124256 0.0872326
657 1 0.833333 0.0131453 0.0718479
819 1 0.833333 0.0131453 0.0872326
666 1 0.833333 0.0687009 0.0718479
828 1 0.833333 0.0687009 0.0872326
675 1 0.833333 0.124256 0.0718479
837 1 0.833333 0.124256 0.0872326
649 2 0.166667 0.0277778 0.0689826
811 2 0.166667 0.0277778 0.0843672
658 2 0.166667 0.0833333 0.0689826
820 2 0.166667 0.0833333 0.0843672
652 2 0.5 0.0277778 0.0689826
814 2 0.5 0.0277778 0.0843672
661 2 0.5 0.0833333 0.0689826
823 2 0.5 0.0833333 0.0843672
655 2 0.833333 0.0277778 0.0689826
817 2 0.833333 0.0277778 0.0843672
664 2 0.833333 0.0833333 0.0689826
826 2 0.833333 0.0833333 0.0843672
650 1 0.166667 0.0424102 0.0718479
812 1 0.166667 0.0424102 0.0872326
659 1 0.166667 0.0979658 0.0718479
821 1 0.166667 0.0979658 0.0872326
653 1 0.5 0.0424102 0.0718479
815 1 0.5 0.0424102 0.0872326
662 1 0.5 0.0979658 0.0718479
824 1 0.5 0.0979658 0.0872326
656 1 0.833333 0.0424102 0.0718479
818 1 0.833333 0.0424102 0.0872326
665 1 0.833333 0.0979658 0.0718479
827 1 0.833333 0.0979658 0.0872326
678 1 0.166667 0.179812 0.0718479
840 1 0.166667 0.179812 0.0872326
687 1 0.166667 0.235368 0.0718479
849 1 0.166667 0.235368 0.0872326
681 1 0.5 0.179812 0.0718479
843 1 0.5 0.179812 0.0872326
690 1 0.5 0.235368 0.0718479
852 1 0.5 0.235368 0.0872326
684 1 0.833333 0.179812 0.0718479
846 1 0.833333 0.179812 0.0872326
693 1 0.833333 0.235368 0.0718479
855 1 0.833333 0.235368 0.0872326
667 2 0.166667 0.138889 0.0689826
829 2 0.166667 0.138889 0.0843672
676 2 0.166667 0.194444 0.0689826
838 2 0.166667 0.194444 0.0843672
670 2 0.5 0.138889 0.0689826
832 2 0.5 0.138889 0.0843672
679 2 0.5 0.194444 0.0689826
841 2 0.5 0.194444 0.0843672
673 2 0.833333 0.138889 0.0689826
835 2 0.833333 0.138889 0.0843672
682 2 0.833333 0.194444 0.0689826
844 2 0.833333 0.194444 0.0843672
668 1 0.166667 0.153521 0.0718479
830 1 0.166667 0.153521 0.0872326
677 1 0.166667 0.209077 0.0718479
839 1 0.166667 0.209077 0.0872326
671 1 0.5 0.153521 0.0718479
833 1 0.5 0.153521 0.0872326
680 1 0.5 0.209077 0.0718479
842 1 0.5 0.209077 0.0872326
674 1 0.833333 0.153521 0.0718479
836 1 0.833333 0.153521 0.0872326
683 1 0.833333 0.209077 0.0718479
845 1 0.833333 0.209077 0.0872326
696 1 0.166667 0.290923 0.0718479
858 1 0.166667 0.290923 0.0872326
705 1 0.166667 0.346479 0.0718479
867 1 0.166667 0.346479 0.0872326
699 1 0.5 0.290923 0.0718479
861 1 0.5 0.290923 0.0872326
708 1 0.5 0.346479 0.0718479
870 1 0.5 0.346479 0.0872326
702 1 0.833333 0.290923 0.0718479
864 1 0.833333 0.290923 0.0872326
711 1 0.833333 0.346479 0.0718479
873 1 0.833333 0.346479 0.0872326
685 2 0.166667 0.25 0.0689826
847 2 0.166667 0.25 0.0843672
694 2 0.166667 0.305556 0.0689826
856 2 0.166667 0.305556 0.0843672
703 2 0.166667 0.361111 0.0689826
865 2 0.166667 0.361111 0.0843672
688 2 0.5 0.25 0.0689826
850 2 0.5 0.25 0.0843672
697 2 0.5 0.305556 0.0689826
859 2 0.5 0.305556 0.0843672
706 2 0.5 0.361111 0.0689826
868 2 0.5 0.361111 0.0843672
691 2 0.833333 0.25 0.0689826
853 2 0.833333 0.25 0.0843672
700 2 0.833333 0.305556 0.0689826
862 2 0.833333 0.305556 0.0843672
709 2 0.833333 0.361111 0.0689826
871 2 0.833333 0.361111 0.0843672
686 1 0.166667 0.264632 0.0718479
848 1 0.166667 0.264632 0.0872326
695 1 0.166667 0.320188 0.0718479
857 1 0.166667 0.320188 0.0872326
689 1 0.5 0.264632 0.0718479
851 1 0.5 0.264632 0.0872326
698 1 0.5 0.320188 0.0718479
860 1 0.5 0.320188 0.0872326
692 1 0.833333 0.264632 0.0718479
854 1 0.833333 0.264632 0.0872326
701 1 0.833333 0.320188 0.0718479
863 1 0.833333 0.320188 0.0872326
714 1 0.166667 0.402034 0.0718479
876 1 0.166667 0.402034 0.0872326
723 1 0.166667 0.45759 0.0718479
885 1 0.166667 0.45759 0.0872326
717 1 0.5 0.402034 0.0718479
879 1 0.5 0.402034 0.0872326
726 1 0.5 0.45759 0.0718479
888 1 0.5 0.45759 0.0872326
720 1 0.833333 0.402034 0.0718479
882 1 0.833333 0.402034 0.0872326
729 1 0.833333 0.45759 0.0718479
891 1 0.833333 0.45759 0.0872326
712 2 0.166667 0.416667 0.0689826
874 2 0.166667 0.416667 0.0843672
721 2 0.166667 0.472222 0.0689826
883 2 0.166667 0.472222 0.0843672
715 2 0.5 0.416667 0.0689826
877 2 0.5 0.416667 0.0843672
724 2 0.5 0.472222 0.0689826
886 2 0.5 0.472222 0.0843672
718 2 0.833333 0.416667 0.0689826
880 2 0.833333 0.416667 0.0843672
727 2 0.833333 0.472222 0.0689826
889 2 0.833333 0.472222 0.0843672
704 1 0.166667 0.375744 0.0718479
866 1 0.166667 0.375744 0.0872326
713 1 0.166667 0.431299 0.0718479
875 1 0.166667 0.431299 0.0872326
722 1 0.166667 0.486855 0.0718479
884 1 0.166667 0.486855 0.0872326
707 1 0.5 0.375744 0.0718479
869 1 0.5 0.375744 0.0872326
716 1 0.5 0.431299 0.0718479
878 1 0.5 0.431299 0.0872326
725 1 0.5 0.486855 0.0718479
887 1 0.5 0.486855 0.0872326
710 1 0.833333 0.375744 0.0718479
872 1 0.833333 0.375744 0.0872326
719 1 0.833333 0.431299 0.0718479
881 1 0.833333 0.431299 0.0872326
728 1 0.833333 0.486855 0.0718479
890 1 0.833333 0.486855 0.0872326
975 1 0.166667 0.0131453 0.102617
1137 1 0.166667 0.0131453 0.118002
984 1 0.166667 0.0687009 0.102617
1146 1 0.166667 0.0687009 0.118002
993 1 0.166667 0.124256 0.102617
1155 1 0.166667 0.124256 0.118002
978 1 0.5 0.0131453 0.102617
1140 1 0.5 0.0131453 0.118002
987 1 0.5 0.0687009 0.102617
1149 1 0.5 0.0687009 0.118002
996 1 0.5 0.124256 0.102617
1158 1 0.5 0.124256 0.118002
981 1 0.833333 0.0131453 0.102617
1143 1 0.833333 0.0131453 0.118002
990 1 0.833333 0.0687009 0.102617
1152 1 0.833333 0.0687009 0.118002
999 1 0.833333 0.124256 0.102617
1161 1 0.833333 0.124256 0.118002
973 2 0.166667 0.0277778 0.0997519
1135 2 0.166667 0.0277778 0.115136
982 2 0.166667 0.0833333 0.0997519
1144 2 0.166667 0.0833333 0.115136
976 2 0.5 0.0277778 0.0997519
1138 2 0.5 0.0277778 0.115136
985 2 0.5 0.0833333 0.0997519
1147 2 0.5 0.0833333 0.115136
979 2 0.833333 0.0277778 0.0997519
1141 2 0.833333 0.0277778 0.115136
988 2 0.833333 0.0833333 0.0997519
1150 2 0.833333 0.0833333 0.115136
974 1 0.166667 0.0424102 0.102617
1136 1 0.166667 0.0424102 0.118002
983 1 0.166667 0.0979658 0.102617
1145 1 0.166667 0.0979658 0.118002
977 1 0.5 0.0424102 0.102617
1139 1 0.5 0.0424102 0.118002
986 1 0.5 0.0979658 0.102617
1148 1 0.5 0.0979658 0.118002
980 1 0.833333 0.0424102 0.102617
1142 1 0.833333 0.0424102 0.118002
989 1 0.833333 0.0979658 0.102617
1151 1 0.833333 0.0979658 0.118002
1002 1 0.166667 0.179812 0.102617
1164 1 0.166667 0.179812 0.118002
1011 1 0.166667 0.235368 0.102617
1173 1 0.166667 0.235368 0.118002
1005 1 0.5 0.179812 0.102617
1167 1 0.5 0.179812 0.118002
1014 1 0.5 0.235368 0.102617
1176 1 0.5 0.235368 0.118002
1008 1 0.833333 0.179812 0.102617
1170 1 0.833333 0.179812 0.118002
1017 1 0.833333 0.235368 0.102617
1179 1 0.833333 0.235368 0.118002
991 2 0.166667 0.138889 0.0997519
1153 2 0.166667 0.138889 0.115136
1000 2 0.166667 0.194444 0.0997519
1162 2 0.166667 0.194444 0.115136
994 2 0.5 0.138889 0.0997519
1156 2 0.5 0.138889 0.115136
1003 2 0.5 0.194444 0.0997519
1165 2 0.5 0.194444 0.115136
997 2 0.833333 0.138889 0.0997519
1159 2 0.833333 0.138889 0.115136
1006 2 0.833333 0.194444 0.0997519
1168 2 0.833333 0.194444 0.115136
992 1 0.166667 0.153521 0.102617
1154 1 0.166667 0.153521 0.118002
1001 1 0.166667 0.209077 0.102617
1163 1 0.166667 0.209077 0.118002
995 1 0.5 0.153521 0.102617
1157 1 0.5 0.153521 0.118002
1004 1 0.5 0.209077 0.102617
1166 1 0.5 0.209077 0.118002
998 1 0.833333 0.153521 0.102617
1160 1 0.833333 0.153521 0.118002
1007 1 0.833333 0.209077 0.102617
1169 1 0.833333 0.209077 0.118002
1020 1 0.166667 0.290923 0.102617
1182 1 0.166667 0.290923 0.118002
1029 1 0.166667 0.346479 0.102617
1191 1 0.166667 0.346479 0.118002
1023 1 0.5 0.290923 0.102617
1185 1 0.5 0.290923 0.118002
1032 1 0.5 0.346479 0.102617
1194 1 0.5 0.346479 0.118002
1026 1 0.833333 0.290923 0.102617
1188 1 0.833333 0.290923 0.118002
1035 1 0.833333 0.346479 0.102617
1197 1 0.833333 0.346479 0.118002
1009 2 0.166667 0.25 0.0997519
1171 2 0.166667 0.25 0.115136
1018 2 0.166667 0.305556 0.0997519
1180 2 0.166667 0.305556 0.115136
1027 2 0.166667 0.361111 0.0997519
1189 2 0.166667 0.361111 0.115136
1012 2 0.5 0.25 0.0997519
1174 2 0.5 0.25 0.115136
1021 2 0.5 0.305556 0.0997519
1183 2 0.5 0.305556 0.115136
1030 2 0.5 0.361111 0.0997519
1192 2 0.5 0.361111 0.115136
1015 2 0.833333 0.25 0.0997519
1177 2 0.833333 0.25 0.115136
1024 2 0.833333 0.305556 0.0997519
1186 2 0.833333 0.305556 0.115136
1033 2 0.833333 0.361111 0.0997519
1195 2 0.833333 0.361111 0.115136
1010 1 0.166667 0.264632 0.102617
1172 1 0.166667 0.264632 0.118002
1019 1 0.166667 0.320188 0.102617
1181 1 0.166667 0.320188 0.118002
1013 1 0.5 0.264632 0.102617
1175 1 0.5 0.264632 0.118002
1022 1 0.5 0.320188 0.102617
1184 1 0.5 0.320188 0.118002
1016 1 0.833333 0.264632 0.102617
1178 1 0.833333 0.264632 0.118002
1025 1 0.833333 0.320188 0.102617
1187 1 0.833333 0.320188 0.118002
1038 1 0.166667 0.402034 0.102617
1200 1 0.166667 0.402034 0.118002
1047 1 0.166667 0.45759 0.102617
1209 1 0.166667 0.45759 0.118002
1041 1 0.5 0.402034 0.102617
1203 1 0.5 0.402034 0.118002
1050 1 0.5 0.45759 0.102617
1212 1 0.5 0.45759 0.118002
1044 1 0.833333 0.402034 0.102617
1206 1 0.833333 0.402034 0.118002
1053 1 0.833333 0.45759 0.102617
1215 1 0.833333 0.45759 0.118002
1036 2 0.166667 0.416667 0.0997519
1198 2 0.166667 0.416667 0.115136
1045 2 0.166667 0.472222 0.0997519
1207 2 0.166667 0.472222 0.115136
1039 2 0.5 0.416667 0.0997519
1201 2 0.5 0.416667 0.115136
1048 2 0.5 0.472222 0.0997519
1210 2 0.5 0.472222 0.115136
1042 2 0.833333 0.416667 0.0997519
1204 2 0.833333 0.416667 0.115136
1051 2 0.833333 0.472222 0.0997519
1213 2 0.833333 0.472222 0.115136
1028 1 0.166667 0.375744 0.102617
1190 1 0.166667 0.375744 0.118002
1037 1 0.166667 0.431299 0.102617
1199 1 0.166667 0.431299 0.118002
1046 1 0.166667 0.486855 0.102617
1208 1 0.166667 0.486855 0.118002
1031 1 0.5 0.375744 0.102617
1193 1 0.5 0.375744 0.118002
1040 1 0.5 0.431299 0.102617
1202 1 0.5 0.431299 0.118002
1049 1 0.5 0.486855 0.102617
1211 1 0.5 0.486855 0.118002
1034 1 0.833333 0.375744 0.102617
1196 1 0.833333 0.375744 0.118002
1043 1 0.833333 0.431299 0.102617
1205 1 0.833333 0.431299 0.118002
1052 1 0.833333 0.486855 0.102617
1214 1 0.833333 0.486855 0.118002
1299 1 0.166667 0.0131453 0.133386
1461 1 0.166667 0.0131453 0.148771
1308 1 0.166667 0.0687009 0.133386
1470 1 0.166667 0.0687009 0.148771
1317 1 0.166667 0.124256 0.133386
1479 1 0.166667 0.124256 0.148771
1302 1 0.5 0.0131453 0.133386
1464 1 0.5 0.0131453 0.148771
1311 1 0.5 0.0687009 0.133386
1473 1 0.5 0.0687009 0.148771
1320 1 0.5 0.124256 0.133386
1482 1 0.5 0.124256 0.148771
1305 1 0.833333 0.0131453 0.133386
1467 1 0.833333 0.0131453 0.148771
1314 1 0.833333 0.0687009 0.133386
1476 1 0.833333 0.0687009 0.148771
1323 1 0.833333 0.124256 0.133386
1485 1 0.833333 0.124256 0.148771
1297 2 0.166667 0.0277778 0.130521
1459 2 0.166667 0.0277778 0.145906
1306 2 0.166667 0.0833333 0.130521
1468 2 0.166667 0.0833333 0.145906
1300 2 0.5 0.0277778 0.130521
1462 2 0.5 0.0277778 0.145906
1309 2 0.5 0.0833333 0.130521
1471 2 0.5 0.0833333 0.145906
1303 2 0.833333 0.0277778 0.130521
1465 2 0.833333 0.0277778 0.145906
1312 2 0.833333 0.0833333 0.130521
1474 2 0.833333 0.0833333 0.145906
1298 1 0.166667 0.0424102 0.133386
1460 1 0.166667 0.0424102 0.148771
1307 1 0.166667 0.0979658 0.133386
1469 1 0.166667 0.0979658 0.148771
1301 1 0.5 0.0424102 0.133386
1463 1 0.5 0.0424102 0.148771
1310 1 0.5 0.0979658 0.133386
1472 1 0.5 0.0979658 0.148771
1304 1 0.833333 0.0424102 0.133386
1466 1 0.833333 0.0424102 0.148771
1313 1 0.833333 0.0979658 0.133386
1475 1 0.833333 0.0979658 0.148771
1326 1 0.166667 0.179812 0.133386
1488 1 0.166667 0.179812 0.148771
1335 1 0.166667 0.235368 0.133386
1497 1 0.166667 0.235368 0.148771
1329 1 0.5 0.179812 0.133386
1491 1 0.5 0.179812 0.148771
1338 1 0.5 0.235368 0.133386
1500 1 0.5 0.235368 0.148771
1332 1 0.833333 0.179812 0.133386
1494 1 0.833333 0.179812 0.148771
1341 1 0.833333 0.235368 0.133386
1503 1 0.833333 0.235368 0.148771
1315 2 0.166667 0.138889 0.130521
1477 2 0.166667 0.138889 0.145906
1324 2 0.166667 0.194444 0.130521
1486 2 0.166667 0.194444 0.145906
1318 2 0.5 0.138889 0.130521
1480 2 0.5 0.138889 0.145906
1327 2 0.5 0.194444 0.130521
1489 2 0.5 0.194444 0.145906
1321 2 0.833333 0.138889 0.130521
1483 2 0.833333 0.138889 0.145906
1330 2 0.833333 0.194444 0.130521
1492 2 0.833333 0.194444 0.145906
1316 1 0.166667 0.153521 0.133386
1478 1 0.166667 0.153521 0.148771
1325 1 0.166667 0.209077 0.133386
1487 1 0.166667 0.209077 0.148771
1319 1 0.5 0.153521 0.133386
1481 1 0.5 0.153521 0.148771
1328 1 0.5 0.209077 0.133386
1490 1 0.5 0.209077 0.148771
1322 1 0.833333 0.153521 0.133386
1484 1 0.833333 0.153521 0.148771
1331 1 0.833333 0.209077 0.133386
1493 1 0.833333 0.209077 0.148771
1344 1 0.166667 0.290923 0.133386
1506 1 0.166667 0.290923 0.148771
1353 1 0.166667 0.346479 0.133386
1515 1 0.166667 0.346479 0.148771
1347 1 0.5 0.290923 0.133386
1509 1 0.5 0.290923 0.148771
1356 1 0.5 0.346479 0.133386
1518 1 0.5 0.346479 0.148771
1350 1 0.833333 0.290923 0.133386
1512 1 0.833333 0.290923 0.148771
1359 1 0.833333 0.346479 0.133386
1521 1 0.833333 0.346479 0.148771
1333 2 0.166667 0.25 0.130521
1495 2 0.166667 0.25 0.145906
1342 2 0.166667 0.305556 0.130521
1504 2 0.166667 0.305556 0.145906
1351 2 0.166667 0.361111 0.130521
1513 2 0.166667 0.361111 0.145906
1336 2 0.5 0.25 0.130521
1498 2 0.5 0.25 0.145906
1345 2 0.5 0.305556 0.130521
1507 2 0.5 0.305556 0.145906
1354 2 0.5 0.361111 0.130521
1516 2 0.5 0.361111 0.145906
1339 2 0.833333 0.25 0.130521
1501 2 0.833333 0.25 0.145906
1348 2 0.833333 0.305556 0.130521
1510 2 0.833333 0.305556 0.145906
1357 2 0.833333 0.361111 0.130521
1519 2 0.833333 0.361111 0.145906
1334 1 0.166667 0.264632 0.133386
1496 1 0.166667 0.264632 0.148771
1343 1 0.166667 0.320188 0.133386
1505 1 0.166667 0.320188 0.148771
1337 1 0.5 0.264632 0.133386
1499 1 0.5 0.264632 0.148771
1346 1 0.5 0.320188 0.133386
1508 1 0.5 0.320188 0.148771
1340 1 0.833333 0.264632 0.133386
1502 1 0.833333 0.264632 0.148771
1349 1 0.833333 0.320188 0.133386
1511 1 0.833333 0.320188 0.148771
1362 1 0.166667 0.402034 0.133386
1524 1 0.166667 0.402034 0.148771
1371 1 0.166667 0.45759 0.133386
1533 1 0.166667 0.45759 0.148771
1365 1 0.5 0.402034 0.133386
1527 1 0.5 0.402034 0.148771
1374 1 0.5 0.45759 0.133386
1536 1 0.5 0.45759 0.148771
1368 1 0.833333 0.402034 0.133386
1530 1 0.833333 0.402034 0.148771
1377 1 0.833333 0.45759 0.133386
1539 1 0.833333 0.45759 0.148771
1360 2 0.166667 0.416667 0.130521
1522 2 0.166667 0.416667 0.145906
1369 2 0.166667 0.472222 0.130521
1531 2 0.166667 0.472222 0.145906
1363 2 0.5 0.416667 0.130521
1525 2 0.5 0.416667 0.145906
1372 2 0.5 0.472222 0.130521
1534 2 0.5 0.472222 0.145906
1366 2 0.833333 0.416667 0.130521
1528 2 0.833333 0.416667 0.145906
1375 2 0.833333 0.472222 0.130521
1537 2 0.833333 0.472222 0.145906
1352 1 0.166667 0.375744 0.133386
1514 1 0.166667 0.375744 0.148771
1361 1 0.166667 0.431299 0.133386
1523 1 0.166667 0.431299 0.148771
1370 1 0.166667 0.486855 0.133386
1532 1 0.166667 0.486855 0.148771
1355 1 0.5 0.375744 0.133386
1517 1 0.5 0.375744 0.148771
1364 1 0.5 0.431299 0.133386
1526 1 0.5 0.431299 0.148771
1373 1 0.5 0.486855 0.133386
1535 1 0.5 0.486855 0.148771
1358 1 0.833333 0.375744 0.133386
1520 1 0.833333 0.375744 0.148771
1367 1 0.833333 0.431299 0.133386
1529 1 0.833333 0.431299 0.148771
1376 1 0.833333 0.486855 0.133386
1538 1 0.833333 0.486855 0.148771
1623 1 0.166667 0.0131453 0.164156
1785 1 0.166667 0.0131453 0.17954
1632 1 0.166667 0.0687009 0.164156
1794 1 0.166667 0.0687009 0.17954
1641 1 0.166667 0.124256 0.164156
1803 1 0.166667 0.124256 0.17954
1626 1 0.5 0.0131453 0.164156
1788 1 0.5 0.0131453 0.17954
1635 1 0.5 0.0687009 0.164156
1797 1 0.5 0.0687009 0.17954
1644 1 0.5 0.124256 0.164156
1806 1 0.5 0.124256 0.17954
1629 1 0.833333 0.0131453 0.164156
1791 1 0.833333 0.0131453 0.17954
1638 1 0.833333 0.0687009 0.164156
1800 1 0.833333 0.0687009 0.17954
1647 1 0.833333 0.124256 0.164156
1809 1 0.833333 0.124256 0.17954
1621 2 0.166667 0.0277778 0.16129
1783 2 0.166667 0.0277778 0.176675
1630 2 0.166667 0.0833333 0.16129
1792 2 0.166667 0.0833333 0.176675
1624 2 0.5 0.0277778 0.16129
1786 2 0.5 0.0277778 0.176675
1633 2 0.5 0.0833333 0.16129
1795 2 0.5 0.0833333 0.176675
1627 2 0.833333 0.0277778 0.16129
1789 2 0.833333 0.0277778 0.176675
1636 2 0.833333 0.0833333 0.16129
1798 2 0.833333 0.0833333 0.176675
1622 1 0.166667 0.0424102 0.164156
1784 1 0.166667 0.0424102 0.17954
1631 1 0.166667 0.0979658 0.164156
1793 1 0.166667 0.0979658 0.17954
1625 1 0.5 0.0424102 0.164156
1787 1 0.5 0.0424102 0.17954
1634 1 0.5 0.0979658 0.164156
1796 1 0.5 0.0979658 0.17954
1628 1 0.833333 0.0424102 0.164156
1790 1 0.833333 0.0424102 0.17954
1637 1 0.833333 0.0979658 0.164156
1799 1 0.833333 0.0979658 0.17954
1650 1 0.166667 0.179812 0.164156
1812 1 0.166667 0.179812 0.17954
1659 1 0.166667 0.235368 0.164156
1821 1 0.166667 0.235368 0.17954
1653 1 0.5 0.179812 0.164156
1815 1 0.5 0.179812 0.17954
1662 1 0.5 0.235368 0.164156
1824 1 0.5 0.235368 0.17954
1656 1 0.833333 0.179812 0.164156
1818 1 0.833333 0.179812 0.17954
1665 1 0.833333 0.235368 0.164156
1827 1 0.833333 0.235368 0.17954
1639 2 0.166667 0.138889 0.16129
1801 2 0.166667 0.138889 0.176675
1648 2 0.166667 0.194444 0.16129
1810 2 0.166667 0.194444 0.176675
1642 2 0.5 0.138889 0.16129
1804 2 0.5 0.138889 0.176675
1651 2 0.5 0.194444 0.16129
1813 2 0.5 0.194444 0.176675
1645 2 0.833333 0.138889 0.16129
1807 2 0.833333 0.138889 0.176675
1654 2 0.833333 0.194444 0.16129
1816 2 0.833333 0.194444 0.176675
1640 1 0.166667 0.153521 0.164156
1802 1 0.166667 0.153521 0.17954
1649 1 0.166667 0.209077 0.164156
1811 1 0.166667 0.209077 0.17954
1643 1 0.5 0.153521 0.164156
1805 1 0.5 0.153521 0.17954
1652 1 0.5 0.209077 0.164156
1814 1 0.5 0.209077 0.17954
1646 1 0.833333 0.153521 0.164156
1808 1 0.833333 0.153521 0.17954
1655 1 0.833333 0.209077 0.164156
1817 1 0.833333 0.209077 0.17954
1668 1 0.166667 0.290923 0.164156
1830 1 0.166667 0.290923 0.17954
1677 1 0.166667 0.346479 0.164156
1839 1 0.166667 0.346479 0.17954
1671 1 0.5 0.290923 0.164156
1833 1 0.5 0.290923 0.17954
1680 1 0.5 0.346479 0.164156
1842 1 0.5 0.346479 0.17954
1674 1 0.833333 0.290923 0.164156
1836 1 0.833333 0.290923 0.17954
1683 1 0.833333 0.346479 0.164156
1845 1 0.833333 0.346479 0.17954
1657 2 0.166667 0.25 0.16129
1819 2 0.166667 0.25 0.176675
1666 2 0.166667 0.305556 0.16129
1828 2 0.166667 0.305556 0.176675
1675 2 0.166667 0.361111 0.16129
1837 2 0.166667 0.361111 0.176675
1660 2 0.5 0.25 0.16129
1822 2 0.5 0.25 0.176675
1669 2 0.5 0.305556 0.16129
1831 2 0.5 0.305556 0.176675
1678 2 0.5 0.361111 0.16129
1840 2 0.5 0.361111 0.176675
1663 2 0.833333 0.25 0.16129
1825 2 0.833333 0.25 0.176675
1672 2 0.833333 0.305556 0.16129
1834 2 0.833333 0.305556 0.176675
1681 2 0.833333 0.361111 0.16129
1843 2 0.833333 0.361111 0.176675
1658 1 0.166667 0.264632 0.164156
1820 1 0.166667 0.264632 0.17954
1667 1 0.166667 0.320188 0.164156
1829 1 0.166667 0.320188 0.17954
1661 1 0.5 0.264632 0.164156