#Calcite unit cell

24840 atoms
14904 bonds
14904 angles
4968 impropers
3 atom types
1 bond types
1 angle types
1 improper types

-1.381146 8.598054 xlo xhi
-1.196086 197.575450 zlo zhi
-25.000000 178.549000 ylo yhi

Masses

1 40.078
2 12.017
3 15.999

Atoms

1 1 1 2.000000 0.000000 0.000000 0.000000
2 2 1 2.000000 0.000000 8.530500 0.000000
3 3 1 2.000000 2.494825 5.686943 1.440359
4 4 1 2.000000 2.494825 14.217443 1.440359
5 5 1 2.000000 -0.000025 11.374057 2.880761
6 6 1 2.000000 -0.000025 2.843557 2.880761
7 7 2 1.123285 0.000000 4.265250 0.000000
8 8 2 1.123285 0.000000 12.795750 0.000000
9 9 2 1.123285 2.494825 9.952193 1.440359
10 10 2 1.123285 2.494825 1.421693 1.440359
11 11 2 1.123285 -0.000025 15.639307 2.880761
12 12 2 1.123285 -0.000025 7.108807 2.880761
13 7 3 -1.041095 1.381121 4.265250 0.000000
14 7 3 -1.041095 -0.690561 4.265250 1.196086
15 7 3 -1.041095 -0.690561 4.265250 -1.196086
16 8 3 -1.041095 -1.381121 12.795750 0.000000
17 8 3 -1.041095 0.690561 12.795750 -1.196086
18 8 3 -1.041095 0.690561 12.795750 1.196086
19 9 3 -1.041095 3.875946 9.952193 1.440359
20 9 3 -1.041095 1.804264 9.952193 2.636445
21 9 3 -1.041095 1.804264 9.952193 0.244273
22 10 3 -1.041095 1.113704 1.421693 1.440359
23 10 3 -1.041095 3.185386 1.421693 0.244273
24 10 3 -1.041095 3.185386 1.421693 2.636445
25 11 3 -1.041095 1.381096 15.639307 2.880761
26 11 3 -1.041095 -0.690586 15.639307 4.076847
27 11 3 -1.041095 -0.690586 15.639307 1.684675
28 12 3 -1.041095 -1.381146 7.108807 2.880761
29 12 3 -1.041095 0.690536 7.108807 1.684675
30 12 3 -1.041095 0.690536 7.108807 4.076847
31 13 1 2.000000 2.494800 0.000000 4.321120
32 14 1 2.000000 2.494800 8.530500 4.321120
33 15 1 2.000000 0.000025 5.686943 5.761479
34 16 1 2.000000 0.000025 14.217443 5.761479
35 17 1 2.000000 2.494775 11.374057 7.201882
36 18 1 2.000000 2.494775 2.843557 7.201882
37 19 2 1.123285 2.494800 4.265250 4.321120
38 20 2 1.123285 2.494800 12.795750 4.321120
39 21 2 1.123285 0.000025 9.952193 5.761479
40 22 2 1.123285 0.000025 1.421693 5.761479
41 23 2 1.123285 2.494775 15.639307 7.201882
42 24 2 1.123285 2.494775 7.108807 7.201882
43 19 3 -1.041095 3.875921 4.265250 4.321120
44 19 3 -1.041095 1.804239 4.265250 5.517206
45 19 3 -1.041095 1.804239 4.265250 3.125034
46 20 3 -1.041095 1.113679 12.795750 4.321120
47 20 3 -1.041095 3.185361 12.795750 3.125034
48 20 3 -1.041095 3.185361 12.795750 5.517206
49 21 3 -1.041095 1.381146 9.952193 5.761479
50 21 3 -1.041095 -0.690536 9.952193 6.957566
51 21 3 -1.041095 -0.690536 9.952193 4.565393
52 22 3 -1.041095 -1.381096 1.421693 5.761479
53 22 3 -1.041095 0.690586 1.421693 4.565393
54 22 3 -1.041095 0.690586 1.421693 6.957566
55 23 3 -1.041095 3.875896 15.639307 7.201882
56 23 3 -1.041095 1.804214 15.639307 8.397968
57 23 3 -1.041095 1.804214 15.639307 6.005796
58 24 3 -1.041095 1.113654 7.108807 7.201882
59 24 3 -1.041095 3.185336 7.108807 6.005796
60 24 3 -1.041095 3.185336 7.108807 8.397968
61 25 1 2.000000 4.989600 0.000000 0.000000
62 26 1 2.000000 4.989600 8.530500 0.000000
63 27 1 2.000000 7.484425 5.686943 1.440359
64 28 1 2.000000 7.484425 14.217443 1.440359
65 29 1 2.000000 4.989575 11.374057 2.880761
66 30 1 2.000000 4.989575 2.843557 2.880761
67 31 2 1.123285 4.989600 4.265250 0.000000
68 32 2 1.123285 4.989600 12.795750 0.000000
69 33 2 1.123285 7.484425 9.952193 1.440359
70 34 2 1.123285 7.484425 1.421693 1.440359
71 35 2 1.123285 4.989575 15.639307 2.880761
72 36 2 1.123285 4.989575 7.108807 2.880761
73 31 3 -1.041095 6.370721 4.265250 0.000000
74 31 3 -1.041095 4.299039 4.265250 1.196086
75 31 3 -1.041095 4.299039 4.265250 -1.196086
76 32 3 -1.041095 3.608479 12.795750 0.000000
77 32 3 -1.041095 5.680161 12.795750 -1.196086
78 32 3 -1.041095 5.680161 12.795750 1.196086
79 33 3 -1.041095 8.865546 9.952193 1.440359
80 33 3 -1.041095 6.793864 9.952193 2.636445
81 33 3 -1.041095 6.793864 9.952193 0.244273
82 34 3 -1.041095 6.103304 1.421693 1.440359
83 34 3 -1.041095 8.174986 1.421693 0.244273
84 34 3 -1.041095 8.174986 1.421693 2.636445
85 35 3 -1.041095 6.370696 15.639307 2.880761
86 35 3 -1.041095 4.299014 15.639307 4.076847
87 35 3 -1.041095 4.299014 15.639307 1.684675
88 36 3 -1.041095 3.608454 7.108807 2.880761
89 36 3 -1.041095 5.680136 7.108807 1.684675
90 36 3 -1.041095 5.680136 7.108807 4.076847
91 37 1 2.000000 7.484400 0.000000 4.321120
92 38 1 2.000000 7.484400 8.530500 4.321120
93 39 1 2.000000 4.989625 5.686943 5.761479
94 40 1 2.000000 4.989625 14.217443 5.761479
95 41 1 2.000000 7.484375 11.374057 7.201882
96 42 1 2.000000 7.484375 2.843557 7.201882
97 43 2 1.123285 7.484400 4.265250 4.321120
98 44 2 1.123285 7.484400 12.795750 4.321120
99 45 2 1.123285 4.989625 9.952193 5.761479
100 46 2 1.123285 4.989625 1.421693 5.761479
101 47 2 1.123285 7.484375 15.639307 7.201882
102 48 2 1.123285 7.484375 7.108807 7.201882
103 43 3 -1.041095 8.865521 4.265250 4.321120
104 43 3 -1.041095 6.793839 4.265250 5.517206
105 43 3 -1.041095 6.793839 4.265250 3.125034
106 44 3 -1.041095 6.103279 12.795750 4.321120
107 44 3 -1.041095 8.174961 12.795750 3.125034
108 44 3 -1.041095 8.174961 12.795750 5.517206
109 45 3 -1.041095 6.370746 9.952193 5.761479
110 45 3 -1.041095 4.299064 9.952193 6.957566
111 45 3 -1.041095 4.299064 9.952193 4.565393
112 46 3 -1.041095 3.608504 1.421693 5.761479
113 46 3 -1.041095 5.680186 1.421693 4.565393
114 46 3 -1.041095 5.680186 1.421693 6.957566
115 47 3 -1.041095 8.865496 15.639307 7.201882
116 47 3 -1.041095 6.793814 15.639307 8.397968
117 47 3 -1.041095 6.793814 15.639307 6.005796
118 48 3 -1.041095 6.103254 7.108807 7.201882
119 48 3 -1.041095 8.174936 7.108807 6.005796
120 48 3 -1.041095 8.174936 7.108807 8.397968
121 49 1 2.000000 0.000000 0.000000 8.642241
122 50 1 2.000000 0.000000 8.530500 8.642241
123 51 1 2.000000 2.494825 5.686943 10.082600
124 52 1 2.000000 2.494825 14.217443 10.082600
125 53 1 2.000000 -0.000025 11.374057 11.523002
126 54 1 2.000000 -0.000025 2.843557 11.523002
127 55 2 1.123285 0.000000 4.265250 8.642241
128 56 2 1.123285 0.000000 12.795750 8.642241
129 57 2 1.123285 2.494825 9.952193 10.082600
130 58 2 1.123285 2.494825 1.421693 10.082600
131 59 2 1.123285 -0.000025 15.639307 11.523002
132 60 2 1.123285 -0.000025 7.108807 11.523002
133 55 3 -1.041095 1.381121 4.265250 8.642241
134 55 3 -1.041095 -0.690561 4.265250 9.838327
135 55 3 -1.041095 -0.690561 4.265250 7.446155
136 56 3 -1.041095 -1.381121 12.795750 8.642241
137 56 3 -1.041095 0.690561 12.795750 7.446155
138 56 3 -1.041095 0.690561 12.795750 9.838327
139 57 3 -1.041095 3.875946 9.952193 10.082600
140 57 3 -1.041095 1.804264 9.952193 11.278686
141 57 3 -1.041095 1.804264 9.952193 8.886514
142 58 3 -1.041095 1.113704 1.421693 10.082600
143 58 3 -1.041095 3.185386 1.421693 8.886514
144 58 3 -1.041095 3.185386 1.421693 11.278686
145 59 3 -1.041095 1.381096 15.639307 11.523002
146 59 3 -1.041095 -0.690586 15.639307 12.719088
147 59 3 -1.041095 -0.690586 15.639307 10.326916
148 60 3 -1.041095 -1.381146 7.108807 11.523002
149 60 3 -1.041095 0.690536 7.108807 10.326916
150 60 3 -1.041095 0.690536 7.108807 12.719088
151 61 1 2.000000 2.494800 0.000000 12.963361
152 62 1 2.000000 2.494800 8.530500 12.963361
153 63 1 2.000000 0.000025 5.686943 14.403720
154 64 1 2.000000 0.000025 14.217443 14.403720
155 65 1 2.000000 2.494775 11.374057 15.844122
156 66 1 2.000000 2.494775 2.843557 15.844122
157 67 2 1.123285 2.494800 4.265250 12.963361
158 68 2 1.123285 2.494800 12.795750 12.963361
159 69 2 1.123285 0.000025 9.952193 14.403720
160 70 2 1.123285 0.000025 1.421693 14.403720
161 71 2 1.123285 2.494775 15.639307 15.844122
162 72 2 1.123285 2.494775 7.108807 15.844122
163 67 3 -1.041095 3.875921 4.265250 12.963361
164 67 3 -1.041095 1.804239 4.265250 14.159447
165 67 3 -1.041095 1.804239 4.265250 11.767275
166 68 3 -1.041095 1.113679 12.795750 12.963361
167 68 3 -1.041095 3.185361 12.795750 11.767275
168 68 3 -1.041095 3.185361 12.795750 14.159447
169 69 3 -1.041095 1.381146 9.952193 14.403720
170 69 3 -1.041095 -0.690536 9.952193 15.599806
171 69 3 -1.041095 -0.690536 9.952193 13.207634
172 70 3 -1.041095 -1.381096 1.421693 14.403720
173 70 3 -1.041095 0.690586 1.421693 13.207634
174 70 3 -1.041095 0.690586 1.421693 15.599806
175 71 3 -1.041095 3.875896 15.639307 15.844122
176 71 3 -1.041095 1.804214 15.639307 17.040208
177 71 3 -1.041095 1.804214 15.639307 14.648036
178 72 3 -1.041095 1.113654 7.108807 15.844122
179 72 3 -1.041095 3.185336 7.108807 14.648036
180 72 3 -1.041095 3.185336 7.108807 17.040208
181 73 1 2.000000 4.989600 0.000000 8.642241
182 74 1 2.000000 4.989600 8.530500 8.642241
183 75 1 2.000000 7.484425 5.686943 10.082600
184 76 1 2.000000 7.484425 14.217443 10.082600
185 77 1 2.000000 4.989575 11.374057 11.523002
186 78 1 2.000000 4.989575 2.843557 11.523002
187 79 2 1.123285 4.989600 4.265250 8.642241
188 80 2 1.123285 4.989600 12.795750 8.642241
189 81 2 1.123285 7.484425 9.952193 10.082600
190 82 2 1.123285 7.484425 1.421693 10.082600
191 83 2 1.123285 4.989575 15.639307 11.523002
192 84 2 1.123285 4.989575 7.108807 11.523002
193 79 3 -1.041095 6.370721 4.265250 8.642241
194 79 3 -1.041095 4.299039 4.265250 9.838327
195 79 3 -1.041095 4.299039 4.265250 7.446155
196 80 3 -1.041095 3.608479 12.795750 8.642241
197 80 3 -1.041095 5.680161 12.795750 7.446155
198 80 3 -1.041095 5.680161 12.795750 9.838327
199 81 3 -1.041095 8.865546 9.952193 10.082600
200 81 3 -1.041095 6.793864 9.952193 11.278686
201 81 3 -1.041095 6.793864 9.952193 8.886514
202 82 3 -1.041095 6.103304 1.421693 10.082600
203 82 3 -1.041095 8.174986 1.421693 8.886514
204 82 3 -1.041095 8.174986 1.421693 11.278686
205 83 3 -1.041095 6.370696 15.639307 11.523002
206 83 3 -1.041095 4.299014 15.639307 12.719088
207 83 3 -1.041095 4.299014 15.639307 10.326916
208 84 3 -1.041095 3.608454 7.108807 11.523002
209 84 3 -1.041095 5.680136 7.108807 10.326916
210 84 3 -1.041095 5.680136 7.108807 12.719088
211 85 1 2.000000 7.484400 0.000000 12.963361
212 86 1 2.000000 7.484400 8.530500 12.963361
213 87 1 2.000000 4.989625 5.686943 14.403720
214 88 1 2.000000 4.989625 14.217443 14.403720
215 89 1 2.000000 7.484375 11.374057 15.844122
216 90 1 2.000000 7.484375 2.843557 15.844122
217 91 2 1.123285 7.484400 4.265250 12.963361
218 92 2 1.123285 7.484400 12.795750 12.963361
219 93 2 1.123285 4.989625 9.952193 14.403720
220 94 2 1.123285 4.989625 1.421693 14.403720
221 95 2 1.123285 7.484375 15.639307 15.844122
222 96 2 1.123285 7.484375 7.108807 15.844122
223 91 3 -1.041095 8.865521 4.265250 12.963361
224 91 3 -1.041095 6.793839 4.265250 14.159447
225 91 3 -1.041095 6.793839 4.265250 11.767275
226 92 3 -1.041095 6.103279 12.795750 12.963361
227 92 3 -1.041095 8.174961 12.795750 11.767275
228 92 3 -1.041095 8.174961 12.795750 14.159447
229 93 3 -1.041095 6.370746 9.952193 14.403720
230 93 3 -1.041095 4.299064 9.952193 15.599806
231 93 3 -1.041095 4.299064 9.952193 13.207634
232 94 3 -1.041095 3.608504 1.421693 14.403720
233 94 3 -1.041095 5.680186 1.421693 13.207634
234 94 3 -1.041095 5.680186 1.421693 15.599806
235 95 3 -1.041095 8.865496 15.639307 15.844122
236 95 3 -1.041095 6.793814 15.639307 17.040208
237 95 3 -1.041095 6.793814 15.639307 14.648036
238 96 3 -1.041095 6.103254 7.108807 15.844122
239 96 3 -1.041095 8.174936 7.108807 14.648036
240 96 3 -1.041095 8.174936 7.108807 17.040208
241 97 1 2.000000 0.000000 0.000000 17.284481
242 98 1 2.000000 0.000000 8.530500 17.284481
243 99 1 2.000000 2.494825 5.686943 18.724840
244 100 1 2.000000 2.494825 14.217443 18.724840
245 101 1 2.000000 -0.000025 11.374057 20.165243
246 102 1 2.000000 -0.000025 2.843557 20.165243
247 103 2 1.123285 0.000000 4.265250 17.284481
248 104 2 1.123285 0.000000 12.795750 17.284481
249 105 2 1.123285 2.494825 9.952193 18.724840
250 106 2 1.123285 2.494825 1.421693 18.724840
251 107 2 1.123285 -0.000025 15.639307 20.165243
252 108 2 1.123285 -0.000025 7.108807 20.165243
253 103 3 -1.041095 1.381121 4.265250 17.284481
254 103 3 -1.041095 -0.690561 4.265250 18.480568
255 103 3 -1.041095 -0.690561 4.265250 16.088395
256 104 3 -1.041095 -1.381121 12.795750 17.284481
257 104 3 -1.041095 0.690561 12.795750 16.088395
258 104 3 -1.041095 0.690561 12.795750 18.480568
259 105 3 -1.041095 3.875946 9.952193 18.724840
260 105 3 -1.041095 1.804264 9.952193 19.920927
261 105 3 -1.041095 1.804264 9.952193 17.528754
262 106 3 -1.041095 1.113704 1.421693 18.724840
263 106 3 -1.041095 3.185386 1.421693 17.528754
264 106 3 -1.041095 3.185386 1.421693 19.920927
265 107 3 -1.041095 1.381096 15.639307 20.165243
266 107 3 -1.041095 -0.690586 15.639307 21.361329
267 107 3 -1.041095 -0.690586 15.639307 18.969157
268 108 3 -1.041095 -1.381146 7.108807 20.165243
269 108 3 -1.041095 0.690536 7.108807 18.969157
270 108 3 -1.041095 0.690536 7.108807 21.361329
271 109 1 2.000000 2.494800 0.000000 21.605602
272 110 1 2.000000 2.494800 8.530500 21.605602
273 111 1 2.000000 0.000025 5.686943 23.045961
274 112 1 2.000000 0.000025 14.217443 23.045961
275 113 1 2.000000 2.494775 11.374057 24.486363
276 114 1 2.000000 2.494775 2.843557 24.486363
277 115 2 1.123285 2.494800 4.265250 21.605602
278 116 2 1.123285 2.494800 12.795750 21.605602
279 117 2 1.123285 0.000025 9.952193 23.045961
280 118 2 1.123285 0.000025 1.421693 23.045961
281 119 2 1.123285 2.494775 15.639307 24.486363
282 120 2 1.123285 2.494775 7.108807 24.486363
283 115 3 -1.041095 3.875921 4.265250 21.605602
284 115 3 -1.041095 1.804239 4.265250 22.801688
285 115 3 -1.041095 1.804239 4.265250 20.409516
286 116 3 -1.041095 1.113679 12.795750 21.605602
287 116 3 -1.041095 3.185361 12.795750 20.409516
288 116 3 -1.041095 3.185361 12.795750 22.801688
289 117 3 -1.041095 1.381146 9.952193 23.045961
290 117 3 -1.041095 -0.690536 9.952193 24.242047
291 117 3 -1.041095 -0.690536 9.952193 21.849875
292 118 3 -1.041095 -1.381096 1.421693 23.045961
293 118 3 -1.041095 0.690586 1.421693 21.849875
294 118 3 -1.041095 0.690586 1.421693 24.242047
295 119 3 -1.041095 3.875896 15.639307 24.486363
296 119 3 -1.041095 1.804214 15.639307 25.682449
297 119 3 -1.041095 1.804214 15.639307 23.290277
298 120 3 -1.041095 1.113654 7.108807 24.486363
299 120 3 -1.041095 3.185336 7.108807 23.290277
300 120 3 -1.041095 3.185336 7.108807 25.682449
301 121 1 2.000000 4.989600 0.000000 17.284481
302 122 1 2.000000 4.989600 8.530500 17.284481
303 123 1 2.000000 7.484425 5.686943 18.724840
304 124 1 2.000000 7.484425 14.217443 18.724840
305 125 1 2.000000 4.989575 11.374057 20.165243
306 126 1 2.000000 4.989575 2.843557 20.165243
307 127 2 1.123285 4.989600 4.265250 17.284481
308 128 2 1.123285 4.989600 12.795750 17.284481
309 129 2 1.123285 7.484425 9.952193 18.724840
310 130 2 1.123285 7.484425 1.421693 18.724840
311 131 2 1.123285 4.989575 15.639307 20.165243
312 132 2 1.123285 4.989575 7.108807 20.165243
313 127 3 -1.041095 6.370721 4.265250 17.284481
314 127 3 -1.041095 4.299039 4.265250 18.480568
315 127 3 -1.041095 4.299039 4.265250 16.088395
316 128 3 -1.041095 3.608479 12.795750 17.284481
317 128 3 -1.041095 5.680161 12.795750 16.088395
318 128 3 -1.041095 5.680161 12.795750 18.480568
319 129 3 -1.041095 8.865546 9.952193 18.724840
320 129 3 -1.041095 6.793864 9.952193 19.920927
321 129 3 -1.041095 6.793864 9.952193 17.528754
322 130 3 -1.041095 6.103304 1.421693 18.724840
323 130 3 -1.041095 8.174986 1.421693 17.528754
324 130 3 -1.041095 8.174986 1.421693 19.920927
325 131 3 -1.041095 6.370696 15.639307 20.165243
326 131 3 -1.041095 4.299014 15.639307 21.361329
327 131 3 -1.041095 4.299014 15.639307 18.969157
328 132 3 -1.041095 3.608454 7.108807 20.165243
329 132 3 -1.041095 5.680136 7.108807 18.969157
330 132 3 -1.041095 5.680136 7.108807 21.361329
331 133 1 2.000000 7.484400 0.000000 21.605602
332 134 1 2.000000 7.484400 8.530500 21.605602
333 135 1 2.000000 4.989625 5.686943 23.045961
334 136 1 2.000000 4.989625 14.217443 23.045961
335 137 1 2.000000 7.484375 11.374057 24.486363
336 138 1 2.000000 7.484375 2.843557 24.486363
337 139 2 1.123285 7.484400 4.265250 21.605602
338 140 2 1.123285 7.484400 12.795750 21.605602
339 141 2 1.123285 4.989625 9.952193 23.045961
340 142 2 1.123285 4.989625 1.421693 23.045961
341 143 2 1.123285 7.484375 15.639307 24.486363
342 144 2 1.123285 7.484375 7.108807 24.486363
343 139 3 -1.041095 8.865521 4.265250 21.605602
344 139 3 -1.041095 6.793839 4.265250 22.801688
345 139 3 -1.041095 6.793839 4.265250 20.409516
346 140 3 -1.041095 6.103279 12.795750 21.605602
347 140 3 -1.041095 8.174961 12.795750 20.409516
348 140 3 -1.041095 8.174961 12.795750 22.801688
349 141 3 -1.041095 6.370746 9.952193 23.045961
350 141 3 -1.041095 4.299064 9.952193 24.242047
351 141 3 -1.041095 4.299064 9.952193 21.849875
352 142 3 -1.041095 3.608504 1.421693 23.045961
353 142 3 -1.041095 5.680186 1.421693 21.849875
354 142 3 -1.041095 5.680186 1.421693 24.242047
355 143 3 -1.041095 8.865496 15.639307 24.486363
356 143 3 -1.041095 6.793814 15.639307 25.682449
357 143 3 -1.041095 6.793814 15.639307 23.290277
358 144 3 -1.041095 6.103254 7.108807 24.486363
359 144 3 -1.041095 8.174936 7.108807 23.290277
360 144 3 -1.041095 8.174936 7.108807 25.682449
361 145 1 2.000000 0.000000 0.000000 25.926722
362 146 1 2.000000 0.000000 8.530500 25.926722
363 147 1 2.000000 2.494825 5.686943 27.367081
364 148 1 2.000000 2.494825 14.217443 27.367081
365 149 1 2.000000 -0.000025 11.374057 28.807483
366 150 1 2.000000 -0.000025 2.843557 28.807483
367 151 2 1.123285 0.000000 4.265250 25.926722
368 152 2 1.123285 0.000000 12.795750 25.926722
369 153 2 1.123285 2.494825 9.952193 27.367081
370 154 2 1.123285 2.494825 1.421693 27.367081
371 155 2 1.123285 -0.000025 15.639307 28.807483
372 156 2 1.123285 -0.000025 7.108807 28.807483
373 151 3 -1.041095 1.381121 4.265250 25.926722
374 151 3 -1.041095 -0.690561 4.265250 27.122808
375 151 3 -1.041095 -0.690561 4.265250 24.730636
376 152 3 -1.041095 -1.381121 12.795750 25.926722
377 152 3 -1.041095 0.690561 12.795750 24.730636
378 152 3 -1.041095 0.690561 12.795750 27.122808
379 153 3 -1.041095 3.875946 9.952193 27.367081
380 153 3 -1.041095 1.804264 9.952193 28.563167
381 153 3 -1.041095 1.804264 9.952193 26.170995
382 154 3 -1.041095 1.113704 1.421693 27.367081
383 154 3 -1.041095 3.185386 1.421693 26.170995
384 154 3 -1.041095 3.185386 1.421693 28.563167
385 155 3 -1.041095 1.381096 15.639307 28.807483
386 155 3 -1.041095 -0.690586 15.639307 30.003570
387 155 3 -1.041095 -0.690586 15.639307 27.611397
388 156 3 -1.041095 -1.381146 7.108807 28.807483
389 156 3 -1.041095 0.690536 7.108807 27.611397
390 156 3 -1.041095 0.690536 7.108807 30.003570
391 157 1 2.000000 2.494800 0.000000 30.247842
392 158 1 2.000000 2.494800 8.530500 30.247842
393 159 1 2.000000 0.000025 5.686943 31.688202
394 160 1 2.000000 0.000025 14.217443 31.688202
395 161 1 2.000000 2.494775 11.374057 33.128604
396 162 1 2.000000 2.494775 2.843557 33.128604
397 163 2 1.123285 2.494800 4.265250 30.247842
398 164 2 1.123285 2.494800 12.795750 30.247842
399 165 2 1.123285 0.000025 9.952193 31.688202
400 166 2 1.123285 0.000025 1.421693 31.688202
401 167 2 1.123285 2.494775 15.639307 33.128604
402 168 2 1.123285 2.494775 7.108807 33.128604
403 163 3 -1.041095 3.875921 4.265250 30.247842
404 163 3 -1.041095 1.804239 4.265250 31.443929
405 163 3 -1.041095 1.804239 4.265250 29.051756
406 164 3 -1.041095 1.113679 12.795750 30.247842
407 164 3 -1.041095 3.185361 12.795750 29.051756
408 164 3 -1.041095 3.185361 12.795750 31.443929
409 165 3 -1.041095 1.381146 9.952193 31.688202
410 165 3 -1.041095 -0.690536 9.952193 32.884288
411 165 3 -1.041095 -0.690536 9.952193 30.492115
412 166 3 -1.041095 -1.381096 1.421693 31.688202
413 166 3 -1.041095 0.690586 1.421693 30.492115
414 166 3 -1.041095 0.690586 1.421693 32.884288
415 167 3 -1.041095 3.875896 15.639307 33.128604
416 167 3 -1.041095 1.804214 15.639307 34.324690
417 167 3 -1.041095 1.804214 15.639307 31.932518
418 168 3 -1.041095 1.113654 7.108807 33.128604
419 168 3 -1.041095 3.185336 7.108807 31.932518
420 168 3 -1.041095 3.185336 7.108807 34.324690
421 169 1 2.000000 4.989600 0.000000 25.926722
422 170 1 2.000000 4.989600 8.530500 25.926722
423 171 1 2.000000 7.484425 5.686943 27.367081
424 172 1 2.000000 7.484425 14.217443 27.367081
425 173 1 2.000000 4.989575 11.374057 28.807483
426 174 1 2.000000 4.989575 2.843557 28.807483
427 175 2 1.123285 4.989600 4.265250 25.926722
428 176 2 1.123285 4.989600 12.795750 25.926722
429 177 2 1.123285 7.484425 9.952193 27.367081
430 178 2 1.123285 7.484425 1.421693 27.367081
431 179 2 1.123285 4.989575 15.639307 28.807483
432 180 2 1.123285 4.989575 7.108807 28.807483
433 175 3 -1.041095 6.370721 4.265250 25.926722
434 175 3 -1.041095 4.299039 4.265250 27.122808
435 175 3 -1.041095 4.299039 4.265250 24.730636
436 176 3 -1.041095 3.608479 12.795750 25.926722
437 176 3 -1.041095 5.680161 12.795750 24.730636
438 176 3 -1.041095 5.680161 12.795750 27.122808
439 177 3 -1.041095 8.865546 9.952193 27.367081
440 177 3 -1.041095 6.793864 9.952193 28.563167
441 177 3 -1.041095 6.793864 9.952193 26.170995
442 178 3 -1.041095 6.103304 1.421693 27.367081
443 178 3 -1.041095 8.174986 1.421693 26.170995
444 178 3 -1.041095 8.174986 1.421693 28.563167
445 179 3 -1.041095 6.370696 15.639307 28.807483
446 179 3 -1.041095 4.299014 15.639307 30.003570
447 179 3 -1.041095 4.299014 15.639307 27.611397
448 180 3 -1.041095 3.608454 7.108807 28.807483
449 180 3 -1.041095 5.680136 7.108807 27.611397
450 180 3 -1.041095 5.680136 7.108807 30.003570
451 181 1 2.000000 7.484400 0.000000 30.247842
452 182 1 2.000000 7.484400 8.530500 30.247842
453 183 1 2.000000 4.989625 5.686943 31.688202
454 184 1 2.000000 4.989625 14.217443 31.688202
455 185 1 2.000000 7.484375 11.374057 33.128604
456 186 1 2.000000 7.484375 2.843557 33.128604
457 187 2 1.123285 7.484400 4.265250 30.247842
458 188 2 1.123285 7.484400 12.795750 30.247842
459 189 2 1.123285 4.989625 9.952193 31.688202
460 190 2 1.123285 4.989625 1.421693 31.688202
461 191 2 1.123285 7.484375 15.639307 33.128604
462 192 2 1.123285 7.484375 7.108807 33.128604
463 187 3 -1.041095 8.865521 4.265250 30.247842
464 187 3 -1.041095 6.793839 4.265250 31.443929
465 187 3 -1.041095 6.793839 4.265250 29.051756
466 188 3 -1.041095 6.103279 12.795750 30.247842
467 188 3 -1.041095 8.174961 12.795750 29.051756
468 188 3 -1.041095 8.174961 12.795750 31.443929
469 189 3 -1.041095 6.370746 9.952193 31.688202
470 189 3 -1.041095 4.299064 9.952193 32.884288
471 189 3 -1.041095 4.299064 9.952193 30.492115
472 190 3 -1.041095 3.608504 1.421693 31.688202
473 190 3 -1.041095 5.680186 1.421693 30.492115
474 190 3 -1.041095 5.680186 1.421693 32.884288
475 191 3 -1.041095 8.865496 15.639307 33.128604
476 191 3 -1.041095 6.793814 15.639307 34.324690
477 191 3 -1.041095 6.793814 15.639307 31.932518
478 192 3 -1.041095 6.103254 7.108807 33.128604
479 192 3 -1.041095 8.174936 7.108807 31.932518
480 192 3 -1.041095 8.174936 7.108807 34.324690
481 193 1 2.000000 0.000000 0.000000 34.568963
482 194 1 2.000000 0.000000 8.530500 34.568963
483 195 1 2.000000 2.494825 5.686943 36.009322
484 196 1 2.000000 2.494825 14.217443 36.009322
485 197 1 2.000000 -0.000025 11.374057 37.449724
486 198 1 2.000000 -0.000025 2.843557 37.449724
487 199 2 1.123285 0.000000 4.265250 34.568963
488 200 2 1.123285 0.000000 12.795750 34.568963
489 201 2 1.123285 2.494825 9.952193 36.009322
490 202 2 1.123285 2.494825 1.421693 36.009322
491 203 2 1.123285 -0.000025 15.639307 37.449724
492 204 2 1.123285 -0.000025 7.108807 37.449724
493 199 3 -1.041095 1.381121 4.265250 34.568963
494 199 3 -1.041095 -0.690561 4.265250 35.765049
495 199 3 -1.041095 -0.690561 4.265250 33.372877
496 200 3 -1.041095 -1.381121 12.795750 34.568963
497 200 3 -1.041095 0.690561 12.795750 33.372877
498 200 3 -1.041095 0.690561 12.795750 35.765049
499 201 3 -1.041095 3.875946 9.952193 36.009322
500 201 3 -1.041095 1.804264 9.952193 37.205408
501 201 3 -1.041095 1.804264 9.952193 34.813236
502 202 3 -1.041095 1.113704 1.421693 36.009322
503 202 3 -1.041095 3.185386 1.421693 34.813236
504 202 3 -1.041095 3.185386 1.421693 37.205408
505 203 3 -1.041095 1.381096 15.639307 37.449724
506 203 3 -1.041095 -0.690586 15.639307 38.645810
507 203 3 -1.041095 -0.690586 15.639307 36.253638
508 204 3 -1.041095 -1.381146 7.108807 37.449724
509 204 3 -1.041095 0.690536 7.108807 36.253638
510 204 3 -1.041095 0.690536 7.108807 38.645810
511 205 1 2.000000 2.494800 0.000000 38.890083
512 206 1 2.000000 2.494800 8.530500 38.890083
513 207 1 2.000000 0.000025 5.686943 40.330442
514 208 1 2.000000 0.000025 14.217443 40.330442
515 209 1 2.000000 2.494775 11.374057 41.770844
516 210 1 2.000000 2.494775 2.843557 41.770844
517 211 2 1.123285 2.494800 4.265250 38.890083
518 212 2 1.123285 2.494800 12.795750 38.890083
519 213 2 1.123285 0.000025 9.952193 40.330442
520 214 2 1.123285 0.000025 1.421693 40.330442
521 215 2 1.123285 2.494775 15.639307 41.770844
522 216 2 1.123285 2.494775 7.108807 41.770844
523 211 3 -1.041095 3.875921 4.265250 38.890083
524 211 3 -1.041095 1.804239 4.265250 40.086169
525 211 3 -1.041095 1.804239 4.265250 37.693997
526 212 3 -1.041095 1.113679 12.795750 38.890083
527 212 3 -1.041095 3.185361 12.795750 37.693997
528 212 3 -1.041095 3.185361 12.795750 40.086169
529 213 3 -1.041095 1.381146 9.952193 40.330442
530 213 3 -1.041095 -0.690536 9.952193 41.526528
531 213 3 -1.041095 -0.690536 9.952193 39.134356
532 214 3 -1.041095 -1.381096 1.421693 40.330442
533 214 3 -1.041095 0.690586 1.421693 39.134356
534 214 3 -1.041095 0.690586 1.421693 41.526528
535 215 3 -1.041095 3.875896 15.639307 41.770844
536 215 3 -1.041095 1.804214 15.639307 42.966931
537 215 3 -1.041095 1.804214 15.639307 40.574758
538 216 3 -1.041095 1.113654 7.108807 41.770844
539 216 3 -1.041095 3.185336 7.108807 40.574758
540 216 3 -1.041095 3.185336 7.108807 42.966931
541 217 1 2.000000 4.989600 0.000000 34.568963
542 218 1 2.000000 4.989600 8.530500 34.568963
543 219 1 2.000000 7.484425 5.686943 36.009322
544 220 1 2.000000 7.484425 14.217443 36.009322
545 221 1 2.000000 4.989575 11.374057 37.449724
546 222 1 2.000000 4.989575 2.843557 37.449724
547 223 2 1.123285 4.989600 4.265250 34.568963
548 224 2 1.123285 4.989600 12.795750 34.568963
549 225 2 1.123285 7.484425 9.952193 36.009322
550 226 2 1.123285 7.484425 1.421693 36.009322
551 227 2 1.123285 4.989575 15.639307 37.449724
552 228 2 1.123285 4.989575 7.108807 37.449724
553 223 3 -1.041095 6.370721 4.265250 34.568963
554 223 3 -1.041095 4.299039 4.265250 35.765049
555 223 3 -1.041095 4.299039 4.265250 33.372877
556 224 3 -1.041095 3.608479 12.795750 34.568963
557 224 3 -1.041095 5.680161 12.795750 33.372877
558 224 3 -1.041095 5.680161 12.795750 35.765049
559 225 3 -1.041095 8.865546 9.952193 36.009322
560 225 3 -1.041095 6.793864 9.952193 37.205408
561 225 3 -1.041095 6.793864 9.952193 34.813236
562 226 3 -1.041095 6.103304 1.421693 36.009322
563 226 3 -1.041095 8.174986 1.421693 34.813236
564 226 3 -1.041095 8.174986 1.421693 37.205408
565 227 3 -1.041095 6.370696 15.639307 37.449724
566 227 3 -1.041095 4.299014 15.639307 38.645810
567 227 3 -1.041095 4.299014 15.639307 36.253638
568 228 3 -1.041095 3.608454 7.108807 37.449724
569 228 3 -1.041095 5.680136 7.108807 36.253638
570 228 3 -1.041095 5.680136 7.108807 38.645810
571 229 1 2.000000 7.484400 0.000000 38.890083
572 230 1 2.000000 7.484400 8.530500 38.890083
573 231 1 2.000000 4.989625 5.686943 40.330442
574 232 1 2.000000 4.989625 14.217443 40.330442
575 233 1 2.000000 7.484375 11.374057 41.770844
576 234 1 2.000000 7.484375 2.843557 41.770844
577 235 2 1.123285 7.484400 4.265250 38.890083
578 236 2 1.123285 7.484400 12.795750 38.890083
579 237 2 1.123285 4.989625 9.952193 40.330442
580 238 2 1.123285 4.989625 1.421693 40.330442
581 239 2 1.123285 7.484375 15.639307 41.770844
582 240 2 1.123285 7.484375 7.108807 41.770844
583 235 3 -1.041095 8.865521 4.265250 38.890083
584 235 3 -1.041095 6.793839 4.265250 40.086169
585 235 3 -1.041095 6.793839 4.265250 37.693997
586 236 3 -1.041095 6.103279 12.795750 38.890083
587 236 3 -1.041095 8.174961 12.795750 37.693997
588 236 3 -1.041095 8.174961 12.795750 40.086169
589 237 3 -1.041095 6.370746 9.952193 40.330442
590 237 3 -1.041095 4.299064 9.952193 41.526528
591 237 3 -1.041095 4.299064 9.952193 39.134356
592 238 3 -1.041095 3.608504 1.421693 40.330442
593 238 3 -1.041095 5.680186 1.421693 39.134356
594 238 3 -1.041095 5.680186 1.421693 41.526528
595 239 3 -1.041095 8.865496 15.639307 41.770844
596 239 3 -1.041095 6.793814 15.639307 42.966931
597 239 3 -1.041095 6.793814 15.639307 40.574758
598 240 3 -1.041095 6.103254 7.108807 41.770844
599 240 3 -1.041095 8.174936 7.108807 40.574758
600 240 3 -1.041095 8.174936 7.108807 42.966931
601 241 1 2.000000 0.000000 0.000000 43.211204
602 242 1 2.000000 0.000000 8.530500 43.211204
603 243 1 2.000000 2.494825 5.686943 44.651563
604 244 1 2.000000 2.494825 14.217443 44.651563
605 245 1 2.000000 -0.000025 11.374057 46.091965
606 246 1 2.000000 -0.000025 2.843557 46.091965
607 247 2 1.123285 0.000000 4.265250 43.211204
608 248 2 1.123285 0.000000 12.795750 43.211204
609 249 2 1.123285 2.494825 9.952193 44.651563
610 250 2 1.123285 2.494825 1.421693 44.651563
611 251 2 1.123285 -0.000025 15.639307 46.091965
612 252 2 1.123285 -0.000025 7.108807 46.091965
613 247 3 -1.041095 1.381121 4.265250 43.211204
614 247 3 -1.041095 -0.690561 4.265250 44.407290
615 247 3 -1.041095 -0.690561 4.265250 42.015117
616 248 3 -1.041095 -1.381121 12.795750 43.211204
617 248 3 -1.041095 0.690561 12.795750 42.015117
618 248 3 -1.041095 0.690561 12.795750 44.407290
619 249 3 -1.041095 3.875946 9.952193 44.651563
620 249 3 -1.041095 1.804264 9.952193 45.847649
621 249 3 -1.041095 1.804264 9.952193 43.455476
622 250 3 -1.041095 1.113704 1.421693 44.651563
623 250 3 -1.041095 3.185386 1.421693 43.455476
624 250 3 -1.041095 3.185386 1.421693 45.847649
625 251 3 -1.041095 1.381096 15.639307 46.091965
626 251 3 -1.041095 -0.690586 15.639307 47.288051
627 251 3 -1.041095 -0.690586 15.639307 44.895879
628 252 3 -1.041095 -1.381146 7.108807 46.091965
629 252 3 -1.041095 0.690536 7.108807 44.895879