LAMMPS data file via write_data, version 12 Dec 2018, timestep = 1000

10530 atoms
2 atom types
7020 bonds
1 bond types
3510 angles
1 angle types

-5.4812108531098858e-02 9.3548121085311458e+00 xlo xhi
-3.2887265118658604e-01 5.6128872651186668e+01 ylo yhi
-1.1875956848404456e+00 2.0268759568484120e+02 zlo zhi

Masses

1 1.00794
2 15.9994

Atoms # full

899 300 1 4.0999999999999998e-01 7.5466145879747009e+00 2.5947113048719189e+01 1.6565221827118641e+01 0 0 0
54 18 1 4.0999999999999998e-01 5.5246094360280011e+00 1.7234571224741728e+01 -3.5365023261456630e-01 0 0 0
1057 353 2 -8.1999999999999995e-01 5.2402491616001363e+00 2.7834851981105928e+01 1.7359538669058061e+01 0 0 0
174 58 1 4.0999999999999998e-01 2.3845261753947078e+00 3.3388362230026849e+00 4.0390437219787714e+00 0 0 0
21 7 1 4.0999999999999998e-01 1.0897378672303000e+00 5.7874186100978013e+00 8.3578686720453366e-01 0 0 0
183 61 1 4.0999999999999998e-01 9.1684271899514016e+00 7.8655639610228345e+00 3.2689001450875761e+00 -1 0 0
6 2 1 4.0999999999999998e-01 3.4341567877151422e+00 2.5190454407533673e+00 1.6677117736477847e+00 0 0 0
1136 379 1 4.0999999999999998e-01 9.1556405663132168e+00 1.0256765247662636e+00 2.1479978735600309e+01 -1 0 0
1179 393 1 4.0999999999999998e-01 8.7172075726932050e+00 1.2451602295895064e+01 2.3349261474346502e+01 0 0 0
177 59 1 4.0999999999999998e-01 4.4561904749629218e+00 3.5879866597694172e+00 4.8093905271560402e+00 0 0 0
24 8 1 4.0999999999999998e-01 3.5026114513376934e+00 5.2938681238347662e+00 2.2845373272282532e-01 0 0 0
186 62 1 4.0999999999999998e-01 3.6379753172990834e+00 6.8770475466920589e+00 3.1995176820643811e+00 0 0 0
9 3 1 4.0999999999999998e-01 6.1758806858743807e+00 2.0139054205204454e+00 2.1449567984857345e+00 0 0 0
495 165 1 4.0999999999999998e-01 5.1316054187192583e-01 1.0137177472075687e+00 1.0272605378566572e+01 1 0 0
18 6 1 4.0999999999999998e-01 2.7050346764689415e-01 4.2085268822319364e+00 2.5921715462610138e+00 1 0 0
180 60 1 4.0999999999999998e-01 5.7455153449753187e+00 4.4546812507322660e+00 9.2195704537859458e-01 0 0 0
27 9 1 4.0999999999999998e-01 6.4347842392924024e+00 7.7421987013506914e+00 1.2862002593085688e+00 0 0 0
189 63 1 4.0999999999999998e-01 6.1233405298311459e+00 9.5194146260357702e+00 1.4477797087492892e+00 0 0 0
407 136 1 4.0999999999999998e-01 1.9363397194466501e+00 2.7487962961997408e+01 7.0480711146752046e+00 0 0 0
163 55 2 -8.1999999999999995e-01 1.2459290785490193e-01 1.0277446975273132e+00 2.7641576317521479e+00 0 0 0
10 4 2 -8.1999999999999995e-01 7.1601320675895597e-01 2.9629583852932861e+00 -5.7623366441778046e-01 0 0 0
172 58 2 -8.1999999999999995e-01 1.4394120634565604e+00 3.3777241262772040e+00 3.7146238351068348e+00 0 0 0
4 2 2 -8.1999999999999995e-01 3.2757295707944372e+00 1.9558546050119623e+00 8.5671518895664311e-01 0 0 0
35 12 1 4.0999999999999998e-01 7.2813250930073581e+00 9.2528674549556520e+00 -1.0667071226852594e+00 0 0 0
404 135 1 4.0999999999999998e-01 8.7619161976028312e+00 2.7131817827585351e+01 5.1320907886122420e+00 0 0 0
175 59 2 -8.1999999999999995e-01 4.0496683930090462e+00 3.8319709259411958e+00 3.9289299177769328e+00 0 0 0
7 3 2 -8.1999999999999995e-01 5.7926057013119721e+00 1.1483412937013380e+00 2.4672906239731711e+00 0 0 0
164 55 1 4.0999999999999998e-01 8.9913309606575762e+00 1.4712670773730543e+00 2.0510225982486432e+00 -1 0 0
16 6 2 -8.1999999999999995e-01 9.0070319619218253e+00 4.7563811683716661e+00 2.0953825192397306e+00 0 0 0
178 60 2 -8.1999999999999995e-01 6.3710657672622082e+00 3.7730000291635299e+00 1.3014310281534844e+00 0 0 0
20 7 1 4.0999999999999998e-01 1.3507432230745677e+00 6.2211394043784169e+00 -7.1675470697919974e-01 0 0 0
10441 3481 2 -8.1999999999999995e-01 8.5313124232346151e+00 2.5398226628825338e+01 -8.7830582645030297e-01 -1 0 1
11 4 1 4.0999999999999998e-01 9.0830594414004906e-01 3.8198180451389545e+00 -9.7886781663048650e-02 0 0 0
173 58 1 4.0999999999999998e-01 1.1282944624323996e+00 2.4559883755176504e+00 3.4830880731980391e+00 0 0 0
5 2 1 4.0999999999999998e-01 2.3159018612110485e+00 1.6768478679392156e+00 8.2697966071382645e-01 0 0 0
15 5 1 4.0999999999999998e-01 4.4404314951249537e+00 1.9851467814795765e+00 -2.9061909423900067e-01 0 0 0
85 29 2 -8.1999999999999995e-01 6.7125920847316314e+00 2.7387529187808173e+01 7.3770277725762812e-01 0 0 0
176 59 1 4.0999999999999998e-01 4.3403059027311039e+00 4.7535401621970506e+00 3.6715502643046891e+00 0 0 0
8 3 1 4.0999999999999998e-01 4.7971704338206846e+00 1.2251413543115797e+00 2.5239449593967227e+00 0 0 0
897 299 1 4.0999999999999998e-01 8.9913318857684406e+00 2.7475906250081497e+01 1.2728771666788452e+01 0 0 0
17 6 1 4.0999999999999998e-01 8.7161273022385508e+00 5.5245497187907251e+00 2.6657261995149923e+00 0 0 0
179 60 1 4.0999999999999998e-01 7.0859209208689675e+00 4.2331497144260588e+00 1.8279706989117304e+00 0 0 0
30 10 1 4.0999999999999998e-01 7.8876436786633031e+00 1.1171707949198025e+01 -1.3865057358771349e-01 -1 0 0
192 64 1 4.0999999999999998e-01 4.6575585380671591e-01 9.8881382390103578e+00 2.9449759714813197e+00 0 0 0
10410 3470 1 4.0999999999999998e-01 3.8379279171732321e+00 1.4313993308305990e+01 -5.1223209355925492e-01 0 0 1
561 187 1 4.0999999999999998e-01 4.6939899765882105e+00 2.6640649918115123e+01 1.1699889877090749e+01 0 0 0
33 11 1 4.0999999999999998e-01 1.7707521333845861e+00 1.0711962732909983e+01 7.2434793219588700e-01 0 0 0
195 65 1 4.0999999999999998e-01 2.6270329535382304e+00 1.0344506320842589e+01 2.4962177411933140e+00 0 0 0
42 14 1 4.0999999999999998e-01 3.2425177051699032e+00 1.4792151366090030e+01 1.6140994127663699e+00 0 0 0
204 68 1 4.0999999999999998e-01 3.4383239719156222e+00 1.5616912580053253e+01 3.2981999882104986e+00 0 0 0
68 23 1 4.0999999999999998e-01 4.7059361497823797e+00 2.1770844236304988e+01 4.6489901661168331e-01 0 0 0
198 66 1 4.0999999999999998e-01 5.1682697925975845e+00 1.1938892526275746e+01 5.4637630295911048e+00 0 0 0
45 15 1 4.0999999999999998e-01 3.5109416045857134e+00 1.2287684512087750e+01 8.1093811286614703e-01 0 0 0
207 69 1 4.0999999999999998e-01 7.4711184196968681e+00 1.2262489883299889e+01 1.4636088857393159e+00 0 0 0
19 7 2 -8.1999999999999995e-01 1.7363672544911146e+00 5.7459321675829873e+00 7.4112503193391577e-02 0 0 0
181 61 2 -8.1999999999999995e-01 6.2500102033703830e-01 7.4462879520115690e+00 2.9970398103235798e+00 0 0 0
28 10 2 -8.1999999999999995e-01 8.5510287213213463e+00 1.1812882686448503e+01 2.4711759408347933e-01 -1 0 0
190 64 2 -8.1999999999999995e-01 8.8093657960276028e-01 1.0548567874177749e+01 2.3193103621944395e+00 0 0 0
22 8 2 -8.1999999999999995e-01 4.4944900039520022e+00 5.4166331022395555e+00 2.6175761898695926e-01 0 0 0
184 62 2 -8.1999999999999995e-01 4.3955190337576902e+00 6.2449592899224902e+00 3.0364516673472544e+00 0 0 0
31 11 2 -8.1999999999999995e-01 2.3843542555904493e+00 1.1104037529299887e+01 3.8950881768271994e-02 0 0 0
193 65 2 -8.1999999999999995e-01 3.5043477398704388e+00 9.9736867703239636e+00 2.8008676630323457e+00 0 0 0
25 9 2 -8.1999999999999995e-01 7.0321839870159826e+00 6.9866668326828982e+00 1.0173391097959064e+00 0 0 0
187 63 2 -8.1999999999999995e-01 5.8258354110545323e+00 9.0886981842209771e+00 2.2998198991748242e+00 0 0 0
1217 406 1 4.0999999999999998e-01 6.9052388784451750e+00 2.7521003965286791e+01 2.3534964566948428e+01 -1 0 0
196 66 2 -8.1999999999999995e-01 4.5839774688226971e+00 1.1163964137896443e+01 5.2227500749586149e+00 0 0 0
1213 405 2 -8.1999999999999995e-01 6.6796022389782117e-01 2.6807507459734353e+01 2.1956487707514523e+01 1 0 0
182 61 1 4.0999999999999998e-01 9.7153583022627488e-01 7.8996920688531009e+00 2.1758596534004417e+00 0 0 0
808 270 2 -8.1999999999999995e-01 8.5161616281528527e+00 -2.1835404216142662e-02 1.3197592512127514e+01 0 1 0
191 64 1 4.0999999999999998e-01 1.6314708678361883e-01 1.1091237277774576e+01 1.8830893242763080e+00 0 0 0
23 8 1 4.0999999999999998e-01 4.8220278201696596e+00 5.7273697962202812e+00 -6.3052209846199669e-01 0 0 0
185 62 1 4.0999999999999998e-01 4.6059384943172708e+00 6.2219573770153396e+00 2.0591112575520003e+00 0 0 0
32 11 1 4.0999999999999998e-01 1.8455356955781026e+00 1.1566466996375583e+01 -6.6520372146002338e-01 0 0 0
194 65 1 4.0999999999999998e-01 4.0343908064152556e+00 1.0695054102624558e+01 3.2466066623782570e+00 0 0 0
26 9 1 4.0999999999999998e-01 7.7204741768723215e+00 6.8371309669937155e+00 1.7271951808418979e+00 0 0 0
188 63 1 4.0999999999999998e-01 4.8430811263920654e+00 9.2298812708743654e+00 2.4192367190243775e+00 0 0 0
735 245 1 4.0999999999999998e-01 3.1293681625422165e+00 2.7252760134440361e+01 1.2621171184531931e+01 0 0 0
197 66 1 4.0999999999999998e-01 5.0344676680460774e+00 1.0311588691749066e+01 5.4882943032918812e+00 0 0 0
1208 403 1 4.0999999999999998e-01 9.4161892508086920e-01 2.7625561624350890e+01 2.0635155054272381e+01 0 0 0
210 70 1 4.0999999999999998e-01 6.6580126655116532e+00 1.8433100518176840e+01 1.6425171714683660e+00 -1 0 0
57 19 1 4.0999999999999998e-01 9.5468423368412370e-01 2.0088798563752047e+01 -3.6333488294111760e-02 0 0 0
219 73 1 4.0999999999999998e-01 7.4519086152515535e-01 2.0920747079911060e+01 2.4543618585239573e+00 0 0 0
51 17 1 4.0999999999999998e-01 4.9354354927927266e+00 1.7000970312947008e+01 3.4113031915010108e+00 0 0 0
213 71 1 4.0999999999999998e-01 7.0402843002657056e-01 1.7034150761987650e+01 2.3810990706469961e+00 0 0 0
483 161 1 4.0999999999999998e-01 5.8627724029194361e+00 6.8358011096921079e-01 7.4217680181590886e+00 0 1 0
222 74 1 4.0999999999999998e-01 3.2851496385286065e+00 1.9426021289124453e+01 4.7136042256398207e+00 0 0 0
69 23 1 4.0999999999999998e-01 5.2850764591771622e+00 2.2299887075882200e+01 -9.6734840772232222e-01 0 0 0
216 72 1 4.0999999999999998e-01 8.2037208561769344e+00 1.6872059669366134e+01 1.1371671281945446e+00 0 0 0
63 21 1 4.0999999999999998e-01 4.8192693362267622e+00 1.9412687049021201e+01 9.9652970187507828e-01 0 0 0
225 75 1 4.0999999999999998e-01 7.9717315671463531e+00 1.9301461488025776e+01 5.5584569150045606e+00 0 0 0
10443 3481 1 4.0999999999999998e-01 7.6391850446381291e+00 2.5540553877214936e+01 -4.4952756345759282e-01 -1 0 1
199 67 2 -8.1999999999999995e-01 8.5190296838852830e-01 1.5233574465418963e+01 -4.9718950788946892e-01 0 0 0
1342 448 2 -8.1999999999999995e-01 7.5703022305007845e+00 1.4914927216452091e+01 2.2111234589263823e+01 -1 0 0
208 70 2 -8.1999999999999995e-01 7.3958943927995495e+00 1.8507075441589748e+01 9.7165332923959991e-01 -1 0 0
55 19 2 -8.1999999999999995e-01 6.0761827483119257e-01 2.0328359055157801e+01 8.7039415568742617e-01 0 0 0
217 73 2 -8.1999999999999995e-01 8.0742592510515787e-01 2.0985556596947177e+01 3.4503179897250966e+00 0 0 0
40 14 2 -8.1999999999999995e-01 2.5513651356533020e+00 1.5508561626706451e+01 1.7092975983198193e+00 0 0 0
202 68 2 -8.1999999999999995e-01 3.9361753530561647e+00 1.5478647385252689e+01 4.1543695522781530e+00 0 0 0
49 17 2 -8.1999999999999995e-01 5.3478526182339499e+00 1.7911438478333565e+01 3.4422668019369818e+00 0 0 0
211 71 2 -8.1999999999999995e-01 8.5062135559849716e-01 1.7879014578530370e+01 2.8956034265148940e+00 0 0 0
1192 398 2 -8.1999999999999995e-01 4.2401710335865230e+00 1.9453366346855148e+01 2.3984556088435951e+01 0 0 0
220 74 2 -8.1999999999999995e-01 3.2912507477219513e+00 1.9921103643526656e+01 3.8447801014305840e+00 0 0 0
43 15 2 -8.1999999999999995e-01 3.8909634010694063e+00 1.3161334097126446e+01 1.1147835305599521e+00 0 0 0
205 69 2 -8.1999999999999995e-01 6.8422419249461370e+00 1.2351607358118718e+01 2.2359892963687091e+00 0 0 0
10447 3483 2 -8.1999999999999995e-01 5.4593567772824683e+00 2.5156147093710931e+01 -2.6318662701869189e-01 0 0 1
214 72 2 -8.1999999999999995e-01 8.6431580650516100e+00 1.6014261563531136e+01 1.4037713319200669e+00 0 0 0
61 21 2 -8.1999999999999995e-01 4.9180188283124542e+00 2.0243926608240859e+01 1.5436021005254106e+00 0 0 0
223 75 2 -8.1999999999999995e-01 7.5556460454394809e+00 1.9283804056976226e+01 4.6493032922807780e+00 0 0 0
10442 3481 1 4.0999999999999998e-01 9.2374161696546615e+00 2.5856788511159515e+01 -3.3873361000331814e-01 -1 0 1
200 67 1 4.0999999999999998e-01 7.4078861739427349e-02 1.5305547424970344e+01 1.2715676798090048e-01 0 0 0
1331 444 1 4.0999999999999998e-01 5.9337282153755588e-01 1.3210127674758843e+01 2.2089734591734903e+01 1 0 0
209 70 1 4.0999999999999998e-01 8.1195765718812556e+00 1.9093530908939524e+01 1.3354579135268931e+00 -1 0 0
41 14 1 4.0999999999999998e-01 1.8614710399057608e+00 1.5403418450031849e+01 9.9306465604266947e-01 0 0 0
203 68 1 4.0999999999999998e-01 3.3004864873918747e+00 1.5175731773033560e+01 4.8644006736392162e+00 0 0 0
50 17 1 4.0999999999999998e-01 4.6331139508603574e+00 1.8596493396068759e+01 3.5831482151225691e+00 0 0 0
212 71 1 4.0999999999999998e-01 1.1411378500941229e+00 1.8603664723801685e+01 2.2707185857974062e+00 0 0 0
44 15 1 4.0999999999999998e-01 4.6987850442261578e+00 1.2994816410711744e+01 1.6802000077921937e+00 0 0 0
206 69 1 4.0999999999999998e-01 7.0670984278423612e+00 1.3175958690080952e+01 2.7554934142202536e+00 0 0 0
640 214 2 -8.1999999999999995e-01 2.6459230067425503e+00 1.2868557908370395e+00 8.0543348128762329e+00 0 1 0
215 72 1 4.0999999999999998e-01 8.1333248258388835e+00 1.5598608763463506e+01 2.1569666590548420e+00 0 0 0
1343 448 1 4.0999999999999998e-01 7.4102346590401824e+00 1.4042554855264195e+01 2.1649344405834885e+01 -1 0 0
228 76 1 4.0999999999999998e-01 1.6815636920527395e+00 2.1917195293256029e+01 5.0271211590853282e+00 0 0 0
73 25 2 -8.1999999999999995e-01 1.7822817355330300e+00 2.7511937833152171e+01 1.5120679216533151e-01 0 0 0
1222 408 2 -8.1999999999999995e-01 6.4710404486547182e+00 2.7659552731254124e+01 2.1820702631727613e+01 0 0 0
10449 3483 1 4.0999999999999998e-01 5.3173374729913432e+00 2.4182325817033547e+01 -8.5700631073318601e-02 0 0 1
231 77 1 4.0999999999999998e-01 5.3443740891817031e+00 2.3074070951745153e+01 3.4133009731799318e+00 0 0 0
10419 3473 1 4.0999999999999998e-01 3.1542398586892393e+00 1.7280416215544179e+01 1.0727163457403219e+00 0 0 1
240 80 1 4.0999999999999998e-01 5.1747563287497638e+00 2.6174143469225434e+01 3.0909886328670693e+00 0 0 0
72 24 1 4.0999999999999998e-01 8.1937898569212795e+00 2.3172818309073474e+01 1.2926946661895999e+00 0 0 0
234 78 1 4.0999999999999998e-01 6.8870308973527816e+00 2.0914670213384511e+01 3.8980509239306453e+00 0 0 0
81 27 1 4.0999999999999998e-01 8.8425578143477210e+00 2.5557375260198704e+01 2.2077703122114318e+00 0 0 0
243 81 1 4.0999999999999998e-01 8.2379115483462080e+00 2.3481676210702179e+01 3.9243766241801481e+00 0 0 0
167 56 1 4.0999999999999998e-01 2.2388109707238497e+00 1.9927719752625639e-02 4.4916890362414028e+00 0 0 0
226 76 2 -8.1999999999999995e-01 2.0086573683741062e+00 2.2646488959510378e+01 5.6280702704025050e+00 0 0 0
168 56 1 4.0999999999999998e-01 3.8631229601471442e+00 1.8284345213575703e-01 4.5328193126671357e+00 0 0 0
10448 3483 1 4.0999999999999998e-01 4.6460598303524661e+00 2.5536829579397015e+01 -7.0321799082318448e-01 0 0 1
733 245 2 -8.1999999999999995e-01 3.4946151880272280e+00 2.6772919707592965e+01 1.3418884157977393e+01 0 0 0
229 77 2 -8.1999999999999995e-01 4.8522845188019978e+00 2.3941501362420716e+01 3.4868733686627724e+00 0 0 0
329 110 1 4.0999999999999998e-01 1.3918360939000979e-01 4.0649344068186843e-01 4.4978099957303970e+00 0 0 0
238 80 2 -8.1999999999999995e-01 5.5151521676420021e+00 2.7071343583889515e+01 3.3723461803498616e+00 0 0 0
70 24 2 -8.1999999999999995e-01 8.8627400266517959e+00 2.2736740402095286e+01 6.9074759566865218e-01 0 0 0
232 78 2 -8.1999999999999995e-01 6.4436640224403794e+00 2.1596065360063871e+01 3.3157033686709170e+00 0 0 0
79 27 2 -8.1999999999999995e-01 9.2095509117625518e+00 2.6343299120992473e+01 1.7101369008527798e+00 0 0 0
241 81 2 -8.1999999999999995e-01 7.9316565344309913e+00 2.4088012486262642e+01 3.1905079318988108e+00 0 0 0
56 19 1 4.0999999999999998e-01 9.0369573512383811e-02 2.1182358647227989e+01 8.1437758943361027e-01 0 0 0
218 73 1 4.0999999999999998e-01 2.0514373573175682e-01 2.0304607371632478e+01 3.8669284394849939e+00 0 0 0
888 296 1 4.0999999999999998e-01 5.6762913207071319e+00 2.6180827311304039e+01 1.7555553229024806e+01 0 0 0
227 76 1 4.0999999999999998e-01 1.2895315200690618e+00 2.2889674896893016e+01 6.2790063033000321e+00 0 0 0
1332 444 1 4.0999999999999998e-01 9.1437815665627253e-01 1.2023633722929771e+01 2.1014648251435290e+01 1 0 0
36 12 1 4.0999999999999998e-01 5.7329112679749317e+00 9.6425427245316104e+00 -7.2437667929140293e-01 0 0 0
10386 3462 1 4.0999999999999998e-01 8.8874596590825696e+00 2.2525306436135519e+00 3.7546400494798515e-02 0 0 1
221 74 1 4.0999999999999998e-01 2.4203424958232409e+00 2.0398201352826511e+01 3.7268934777123164e+00 0 0 0
481 161 2 -8.1999999999999995e-01 5.4683418264910317e+00 1.4778941200134985e+00 7.8838194991414241e+00 0 1 0
230 77 1 4.0999999999999998e-01 4.0091022545093233e+00 2.3803350109616957e+01 4.0064467926832394e+00 0 0 0
1130 377 1 4.0999999999999998e-01 4.9334564454432570e+00 1.0828298670345404e+00 1.6611602763435471e+01 0 1 0
239 80 1 4.0999999999999998e-01 6.1411041033971250e+00 2.6963164978355532e+01 4.1446677202498483e+00 0 0 0
62 21 1 4.0999999999999998e-01 4.2810796729463725e+00 2.0213599281887774e+01 2.3139187318076808e+00 0 0 0
224 75 1 4.0999999999999998e-01 6.9668621461911737e+00 1.8479636602940715e+01 4.5677685514268092e+00 0 0 0
71 24 1 4.0999999999999998e-01 8.8388404033155279e+00 2.3175618961210205e+01 -2.0748005664065927e-01 0 0 0
233 78 1 4.0999999999999998e-01 6.0722199957820129e+00 2.1148375715241379e+01 2.5023116824743790e+00 0 0 0
80 27 1 4.0999999999999998e-01 8.4936599922039875e+00 2.7033041274138501e+01 1.6017150594449308e+00 0 0 0
242 81 1 4.0999999999999998e-01 6.9355087554708605e+00 2.4043289750758863e+01 3.1150811492505506e+00 0 0 0
327 109 1 4.0999999999999998e-01 8.9196322912667423e+00 3.1240244768679535e+00 7.0367810710074661e+00 -1 0 0
489 163 1 4.0999999999999998e-01 3.2800957488069233e+00 2.7972741057409150e+00 7.5311725226359592e+00 0 0 0
336 112 1 4.0999999999999998e-01 1.7861779446385719e+00 5.7480790584433352e+00 5.9001828399168312e+00 0 0 0
498 166 1 4.0999999999999998e-01 6.8727646954969057e-01 3.1585664272418001e+00 1.0529966316365739e+01 0 0 0
345 115 1 4.0999999999999998e-01 7.8759702121811159e+00 8.8006356618945549e+00 4.9251947715790818e+00 -1 0 0
507 169 1 4.0999999999999998e-01 8.1153533170365062e+00 7.8977201706755586e+00 7.5817887131556887e+00 -1 0 0
330 110 1 4.0999999999999998e-01 -5.4285733331024634e-02 1.0989332689909526e+00 5.9640030092467562e+00 0 0 0
492 164 1 4.0999999999999998e-01 5.6535690882071483e+00 1.7396513810118148e+00 9.4622339826043280e+00 0 0 0
339 113 1 4.0999999999999998e-01 5.9619031969754914e+00 4.5361943009721966e+00 6.4882411897844676e+00 0 0 0
501 167 1 4.0999999999999998e-01 6.0374438937724557e+00 4.7120882738142704e+00 9.7789507905613071e+00 0 0 0
348 116 1 4.0999999999999998e-01 2.9429834557977932e+00 9.0543066178366871e+00 7.7401234882913545e+00 0 0 0
510 170 1 4.0999999999999998e-01 6.4698027156024471e+00 9.8082303118167875e+00 1.1668263463953000e+01 0 0 0
333 111 1 4.0999999999999998e-01 8.1449242058785760e+00 4.4798633403263715e+00 5.6226823585304979e+00 0 0 0
171 57 1 4.0999999999999998e-01 6.9012806207150765e+00 -3.0222687863334302e-01 2.7229579935489530e+00 0 0 0
342 114 1 4.0999999999999998e-01 7.3368057547704595e+00 6.2148293369777514e+00 4.6958382214084740e+00 0 0 0
504 168 1 4.0999999999999998e-01 6.0479412413695610e-01 5.9002078892662340e+00 8.6010278618827929e+00 1 0 0
351 117 1 4.0999999999999998e-01 6.0927074423515233e+00 6.6824918001866846e+00 8.7060719126136892e+00 0 0 0
513 171 1 4.0999999999999998e-01 8.6742673553858669e+00 6.8817113437841151e+00 1.0386509351735210e+01 0 0 0
325 109 2 -8.1999999999999995e-01 8.9788845782505913e+00 2.1416544143091261e+00 7.2140857843444781e+00 -1 0 0
487 163 2 -8.1999999999999995e-01 3.3878573841073001e+00 3.7914438704559510e+00 7.5350675431225724e+00 0 0 0
334 112 2 -8.1999999999999995e-01 1.9008058312692184e+00 6.7227196786198595e+00 5.7079988469121847e+00 0 0 0
496 166 2 -8.1999999999999995e-01 6.7989507401635152e-01 4.1455377629019541e+00 1.0690697362572356e+01 0 0 0
893 298 1 4.0999999999999998e-01 9.0314873530335404e-01 2.6281701888669055e+01 1.7326957381539557e+01 0 0 0
490 164 2 -8.1999999999999995e-01 5.7490603771820696e+00 1.7447014447491949e+00 1.0457653412645552e+01 0 0 0
337 113 2 -8.1999999999999995e-01 6.3776582236092798e+00 3.9350166366058366e+00 5.8057951423527578e+00 0 0 0
499 167 2 -8.1999999999999995e-01 5.9747416416094188e+00 4.8598362608316501e+00 8.7919148467667121e+00 0 0 0
331 111 2 -8.1999999999999995e-01 9.0979950917688104e+00 4.7793312847976823e+00 5.6671409866775582e+00 0 0 0
493 165 2 -8.1999999999999995e-01 9.1831941663219592e+00 1.6244532586666545e+00 9.9897491081722176e+00 0 0 0
340 114 2 -8.1999999999999995e-01 7.2988134485967171e+00 6.4640398752526078e+00 3.7281348482391410e+00 0 0 0
502 168 2 -8.1999999999999995e-01 1.0345014862508493e+00 5.2266771983464659e+00 7.9996072398168945e+00 1 0 0
326 109 1 4.0999999999999998e-01 8.8892102513399696e+00 1.9741511419962841e+00 8.1958707829783854e+00 -1 0 0
488 163 1 4.0999999999999998e-01 2.5474944495639789e+00 4.2164811168130152e+00 7.8714220497185394e+00 0 0 0
335 112 1 4.0999999999999998e-01 1.5469241324865459e+00 6.9263231699015941e+00 4.7951394036600545e+00 0 0 0
497 166 1 4.0999999999999998e-01 6.3787812282818523e-01 4.6256276160514780e+00 9.8144847104222315e+00 0 0 0
815 272 1 4.0999999999999998e-01 4.4505523240915297e+00 4.9381890422432850e-02 1.3413593898730202e+01 0 0 0
491 164 1 4.0999999999999998e-01 5.7165169113327492e+00 2.6870005754393596e+00 1.0790839154087827e+01 0 0 0
338 113 1 4.0999999999999998e-01 6.2819278411236690e+00 2.9832965896288153e+00 6.0974527506526845e+00 0 0 0
500 167 1 4.0999999999999998e-01 5.1736732704776873e+00 4.3805310630953649e+00 8.4333678407675059e+00 0 0 0
332 111 1 4.0999999999999998e-01 2.0203143983403554e-01 4.3694983207638636e+00 4.9133570602403953e+00 1 0 0
494 165 1 4.0999999999999998e-01 8.3410306408359709e+00 1.3707210943451384e+00 1.0465542206412062e+01 0 0 0
341 114 1 4.0999999999999998e-01 6.3446929623071497e+00 6.5728345747552481e+00 3.4491758075403824e+00 0 0 0
503 168 1 4.0999999999999998e-01 5.2127080308491924e-01 5.1689973245907028e+00 7.1432976271875592e+00 1 0 0
354 118 1 4.0999999999999998e-01 1.0916706600437180e+00 1.1151365838401546e+01 6.9000498177636000e+00 0 0 0
516 172 1 4.0999999999999998e-01 3.8590737989828672e-01 9.8255214839981324e+00 1.1187736097704610e+01 0 0 0
363 121 1 4.0999999999999998e-01 2.6915566911104385e+00 1.4110489483664455e+01 7.1249208834569639e+00 0 0 0
525 175 1 4.0999999999999998e-01 2.6316385126266222e+00 1.3497337768227808e+01 9.5220952120007798e+00 0 0 0
357 119 1 4.0999999999999998e-01 6.8033003142444874e+00 8.6273972018727640e+00 6.2406227491986419e+00 0 0 0
519 173 1 4.0999999999999998e-01 8.6387409976647422e+00 1.1540625386179659e+01 7.9956097989648871e+00 0 0 0
366 122 1 4.0999999999999998e-01 5.8960641649886734e+00 1.3922281354335011e+01 9.3794469805196510e+00 0 0 0
528 176 1 4.0999999999999998e-01 2.4803649399512606e+00 1.4121911853573762e+01 1.1591351250802584e+01 0 0 0
360 120 1 4.0999999999999998e-01 8.7305370036865071e+00 1.0646943179050711e+01 5.2792521484689985e+00 0 0 0
522 174 1 4.0999999999999998e-01 1.4814877843453880e-01 8.0361591042628131e+00 1.2984728167383960e+01 1 0 0
369 123 1 4.0999999999999998e-01 1.7827003677844120e+00 1.3265028632951722e+01 3.6164338432278473e+00 1 0 0
531 177 1 4.0999999999999998e-01 5.0879145917795130e+00 1.4315172043474124e+01 1.1209315031244406e+01 0 0 0
343 115 2 -8.1999999999999995e-01 7.9857787456929863e+00 9.2810975463438457e+00 4.0550800888808416e+00 -1 0 0
505 169 2 -8.1999999999999995e-01 8.2762388887485248e+00 7.8647790445730497e+00 6.5953657408749917e+00 -1 0 0
352 118 2 -8.1999999999999995e-01 2.0325076362205245e+00 1.1275910687122705e+01 7.2151916303622858e+00 0 0 0
514 172 2 -8.1999999999999995e-01 7.0504674095066844e-01 9.7502228209198556e+00 1.0243025123507381e+01 0 0 0
346 116 2 -8.1999999999999995e-01 3.6394254787019089e+00 8.4324300270132841e+00 7.3820217905063856e+00 0 0 0
508 170 2 -8.1999999999999995e-01 5.9145195664398527e+00 9.0061735242917003e+00 1.1448341858551910e+01 0 0 0
355 119 2 -8.1999999999999995e-01 5.9589998720260029e+00 9.1313884233845197e+00 6.0585496305166346e+00 0 0 0
517 173 2 -8.1999999999999995e-01 8.3766369329114294e+00 1.1545775199523481e+01 8.9606364118402073e+00 0 0 0
349 117 2 -8.1999999999999995e-01 6.0116821819530299e+00 7.6744703195811290e+00 8.6090487976164063e+00 0 0 0
511 171 2 -8.1999999999999995e-01 9.0187881902489124e+00 7.1310919062620011e+00 9.4814603039969807e+00 0 0 0
358 120 2 -8.1999999999999995e-01 9.0443606681805395e+00 1.1471723920011245e+01 5.7496256522553324e+00 0 0 0
520 174 2 -8.1999999999999995e-01 5.6521180054772968e-01 8.9302744098287761e+00 1.3147868882282552e+01 1 0 0
344 115 1 4.0999999999999998e-01 7.1368426318922493e+00 9.2184778891998587e+00 3.5303034383070928e+00 -1 0 0
506 169 1 4.0999999999999998e-01 9.1635263296293683e+00 7.4397106966897129e+00 6.4163775859295846e+00 -1 0 0
353 118 1 4.0999999999999998e-01 2.6578373534873294e+00 1.1191195016459288e+01 6.4394432906405283e+00 0 0 0
515 172 1 4.0999999999999998e-01 8.5010619873638643e-02 1.0252945135021225e+01 9.6406767593740739e+00 0 0 0
347 116 1 4.0999999999999998e-01 3.1950485664884898e+00 7.6628746674503017e+00 6.9234214301060000e+00 0 0 0
509 170 1 4.0999999999999998e-01 6.2328158387664248e+00 8.6058618145380112e+00 1.0589018172269473e+01 0 0 0
356 119 1 4.0999999999999998e-01 5.2375040677670714e+00 8.8045924555531112e+00 6.6689997735449404e+00 0 0 0
518 173 1 4.0999999999999998e-01 7.5425944921620811e+00 1.2085149322390251e+01 9.0766183198662507e+00 0 0 0
350 117 1 4.0999999999999998e-01 5.0659542561351651e+00 7.9114862336547169e+00 8.3867383959193305e+00 0 0 0
512 171 1 4.0999999999999998e-01 9.3093032980737682e+00 8.0879431024739734e+00 9.4874225974354189e+00 0 0 0
359 120 1 4.0999999999999998e-01 9.9454763481908959e-02 1.2070850369313670e+01 5.0976412035515821e+00 1 0 0
521 174 1 4.0999999999999998e-01 1.4014679074770844e-01 9.3555383736119762e+00 1.3946911601888837e+01 1 0 0
372 124 1 4.0999999999999998e-01 4.6284648191845146e-01 1.7075365822687314e+01 4.4456891369351688e+00 0 0 0
534 178 1 4.0999999999999998e-01 -2.3022040869748774e-02 1.4401908150345459e+01 1.1134297376933047e+01 0 0 0
381 127 1 4.0999999999999998e-01 1.5561329375745547e+00 1.7263855551180757e+01 6.4383769909063737e+00 0 0 0
543 181 1 4.0999999999999998e-01 8.4918856581490516e+00 1.8014609674123019e+01 9.4079522595833165e+00 -1 0 0
375 125 1 4.0999999999999998e-01 5.2098949546887052e+00 1.4562309801121636e+01 5.6094510360390419e+00 0 0 0
537 179 1 4.0999999999999998e-01 1.2202242500912321e+00 1.8302615562723503e+01 1.0193576155141802e+01 0 0 0
384 128 1 4.0999999999999998e-01 5.1798762165885774e+00 1.8339830045476987e+01 6.2943833329784411e+00 0 0 0
546 182 1 4.0999999999999998e-01 5.7577097768957053e+00 2.2897383450507537e+01 9.9976959627870698e+00 0 0 0
378 126 1 4.0999999999999998e-01 8.8354887138933407e+00 1.4237646912605879e+01 3.9100128122252622e+00 0 0 0
540 180 1 4.0999999999999998e-01 4.6675368619325406e+00 1.6758928873257926e+01 1.0877551679021781e+01 0 0 0
387 129 1 4.0999999999999998e-01 6.5892825295738087e+00 1.6222907727969030e+01 6.2565821592202822e+00 0 0 0
549 183 1 4.0999999999999998e-01 5.7573696938757974e+00 2.0546389610514314e+01 1.0701698626685060e+01 0 0 0
361 121 2 -8.1999999999999995e-01 2.7383315083081290e+00 1.4747170685281644e+01 6.3552144030211792e+00 0 0 0
523 175 2 -8.1999999999999995e-01 3.1156812168049806e+00 1.3277641030860039e+01 8.6750788674346477e+00 0 0 0
370 124 2 -8.1999999999999995e-01 2.5599189810561201e-01 1.6691303544738723e+01 5.3455273519761359e+00 0 0 0
532 178 2 -8.1999999999999995e-01 8.4954159094299939e+00 1.4284213415647232e+01 1.1572400057642112e+01 -1 0 0
379 127 2 -8.1999999999999995e-01 2.2157157444613538e+00 1.7390869965750923e+01 7.1792001532054019e+00 0 0 0
541 181 2 -8.1999999999999995e-01 7.5248635444919545e+00 1.7762658137202330e+01 9.3706731770154565e+00 -1 0 0
364 122 2 -8.1999999999999995e-01 6.0586422818975070e+00 1.3199192380611024e+01 8.7080963014932173e+00 0 0 0
526 176 2 -8.1999999999999995e-01 1.9980255265348412e+00 1.4543451069314598e+01 1.0823462861272743e+01 0 0 0
373 125 2 -8.1999999999999995e-01 6.1043108163287814e+00 1.4299451734765730e+01 5.9712865052713129e+00 0 0 0
535 179 2 -8.1999999999999995e-01 7.4691496376166844e-01 1.8336441403802450e+01 9.3133298037814498e+00 0 0 0
382 128 2 -8.1999999999999995e-01 4.4578399320821953e+00 1.9023064395175400e+01 6.4032561438816700e+00 0 0 0
544 182 2 -8.1999999999999995e-01 5.5213970563002928e+00 2.1983548841336400e+01 9.6674491559897522e+00 0 0 0
367 123 2 -8.1999999999999995e-01 9.4158210294942868e-01 1.3597495426401016e+01 4.0430304737012754e+00 1 0 0
529 177 2 -8.1999999999999995e-01 5.5581517151445041e+00 1.5125601129797115e+01 1.0859909434211447e+01 0 0 0
376 126 2 -8.1999999999999995e-01 7.8868249919931381e+00 1.4494793921646954e+01 3.7258527890011468e+00 0 0 0
538 180 2 -8.1999999999999995e-01 4.1692020539059280e+00 1.7617694331049758e+01 1.0758443264927061e+01 0 0 0
385 129 2 -8.1999999999999995e-01 6.7751328109232949e+00 1.7176040759748737e+01 6.4953217726385981e+00 0 0 0
547 183 2 -8.1999999999999995e-01 6.0363765369324662e+00 1.9775967610961128e+01 1.1274941334504952e+01 0 0 0
362 121 1 4.0999999999999998e-01 2.6455730545867193e+00 1.5684281673043820e+01 6.6916929208377107e+00 0 0 0
524 175 1 4.0999999999999998e-01 2.7180199971112815e+00 1.2455583543092079e+01 8.2675392639230036e+00 0 0 0
371 124 1 4.0999999999999998e-01 8.7891238072150166e+00 1.7049394924410169e+01 5.6672899656792204e+00 -1 0 0
533 178 1 4.0999999999999998e-01 8.6243131091501368e+00 1.3945489245684410e+01 1.2504414070358397e+01 -1 0 0